<VTKFile type="PolyData" version="1.0" byte_order="LittleEndian" header_type="UInt64">
  <PolyData>
    <Piece NumberOfPoints="1154" NumberOfVerts="1154">
      <Points>
        <DataArray type="Float64" Name="Points" NumberOfComponents="3" format="ascii">
0.08076679881933017 0.1298126231128805 0.02310033556671101
0.1048245632141327 0.1164182318887669 0.02784991258387776
0.07504847467097446 0.1346870868427227 0.02004356608705433
0.07931349157356607 0.1193442886756484 0.003934517402730264
0.09699178837387688 0.1192991024329973 0.03350095956689982
0.1289711063169296 0.1211053862243092 0.03601882204112605
0.1211053861527756 0.1289711063919345 0.03601882192679403
0.1064348012951379 0.1131412151636128 0.006173943716280654
0.1255047678003967 0.1340384387862612 0.03974346669410751
0.1340384389109714 0.1255047679014454 0.03974346660727687
0.1454914246608184 0.1363695053197431 0.05808696055909214
0.1363695053524701 0.145491424655839 0.05808696053340459
0.1040143025004126 0.1132045938095633 0.01796467909280778
0.08199344439108738 0.1251226209924367 0.01290536079660111
0.1109013159101751 0.1109013157085105 0.0163095285060289
0.09720342186537394 0.106710252859513 0.02812499192231046
0.1432325180062639 0.1432325180079982 0.06221194553787209
0.1001320694890283 0.1187727174884417 0.0235574203441086
0.07856552153335954 0.1389163756414018 0.0179830576207411
0.1100533700985621 0.1220357803172396 0.02698247284546203
0.1180763130389208 0.127861388056188 0.02939716090541663
0.1330279224808981 0.1229016960821988 0.03305155967853449
0.1348607061634209 0.1458051834798819 0.05463480895481829
0.1229016960422806 0.1330279225888066 0.03305155959428276
0.1147057973136017 0.1147057971690099 0.01215276682554506
0.1282928521159057 0.138731330123685 0.03726748685369063
0.1387313302337669 0.1282928523604012 0.03726748693276939
0.127861387775634 0.1180763128146892 0.02939716104972937
0.08311591057958186 0.1164207091212067 0.002390016732156961
0.1009111998601972 0.1184518643124944 0.01577749829449972
0.07430675205350382 0.1385368920111382 0.01690767210745192
0.1080245344353049 0.1161261219852486 0.01124130757155458
0.1040810904830699 0.1233361669732831 0.02386318797555302
0.1458051835148498 0.1348607061505199 0.05463480902812724
0.08290219849728875 0.1386435021586471 0.01883689728224259
0.1311305169050743 0.1410460492945239 0.04561594612772112
0.09771048728325095 0.1201696313684469 0.01375929747386883
0.1127477764273254 0.1247557771216677 0.01539068925442949
0.1410460492843238 0.1311305168832202 0.04561594622356053
0.1146004456928626 0.1409403187032338 0.01500909306206908
0.106945947372725 0.1386249322680497 0.002921348557005932
0.1145134331061971 0.1411318211695877 0.009661076358602
0.116628947368421 0.1618131578947369 0.09552692307692309
0.1075921052631579 0.1618131578947369 0.09552692307692309
0.116628947368421 0.1618131578947369 0.08676538461538462
0.1075921052631579 0.1618131578947369 0.08676538461538462
0.116628947368421 0.1618131578947369 0.1042884615384616
0.1075921052631579 0.1618131578947369 0.1042884615384616
0.1068110228187028 0.1357352653302578 0.01534543118385886
0.07821682029146575 0.1424542528165109 0.01373694626591318
0.1070765005745019 0.1281553264708739 0.005577663635807314
0.103317748255044 0.1420181089090053 0.00871754535615658
0.1082403298504939 0.1405221391506142 0.009861784186090022
0.1002381227901291 0.1377818814476911 0.0008520345931046456
0.09747391737268965 0.1258375902090022 0.02373255414949967
0.1117072960290208 0.1370657563122472 0.003693200444088565
0.09738053383298954 0.1220448008001139 0.008659370230121668
0.116628947368421 0.1618131578947369 0.07800384615384616
0.11314121543322 0.1064348011387944 0.006173943731820199
0.08265172550118664 0.1440200213260505 0.01019714257819715
0.1331511158158872 0.1331511162679955 0.02793043429291371
0.07800669001934078 0.1432875427876442 0.007241997440490028
0.1218134548779359 0.1453855256472174 0.0156402133764175
0.1453855259209407 0.121813454699039 0.01564021339933261
0.1516845645501683 0.1414937621130474 0.04141845687800749
0.1414937619667144 0.15168456450844 0.04141845680475684
0.1500795168473474 0.1298190381457166 0.02336664901825484
0.1298190378955189 0.1500795168031512 0.02336664901584929
0.1485674373924729 0.1485674373603199 0.05694482812029941
0.08231778975667103 0.1401913412864326 0.001621278147876979
0.07549448282046152 0.140748346897348 0.00174554411623367
0.1521913454541751 0.1421789878621545 0.03640634727375483
0.1502574511283698 0.1502574510930893 0.05204165935382389
0.1075921052631579 0.1618131578947369 0.07800384615384616
0.142178987815952 0.1521913454612748 0.03640634727750526
0.1256657894736842 0.1618131578947369 0.09552692307692309
0.1437394736842105 0.1618131578947369 0.08676538461538462
0.116628947368421 0.1618131578947369 0.0692423076923077
0.1075921052631579 0.1618131578947369 0.0692423076923077
0.116628947368421 0.1618131578947369 0.06048076923076924
0.1075921052631579 0.1618131578947369 0.06048076923076924
0.116628947368421 0.1618131578947369 0.05171923076923078
0.1347026315789474 0.1618131578947369 0.08676538461538462
0.1256657894736842 0.1618131578947369 0.08676538461538462
0.1075921052631579 0.1618131578947369 0.05171923076923078
0.116628947368421 0.1618131578947369 0.04295769230769231
0.1075921052631579 0.1618131578947369 0.04295769230769231
0.07252608283344077 0.1258375896242628 0.02373255430112275
0.116628947368421 0.1618131578947369 0.03419615384615385
0.08048157894736842 0.1618131578947369 0.007911538461538463
0.1075921052631579 0.1618131578947369 0.03419615384615385
0.08048157894736842 0.1618131578947369 0.01667307692307693
0.116628947368421 0.1618131578947369 0.02543461538461539
0.1075921052631579 0.1618131578947369 0.02543461538461539
0.116628947368421 0.1618131578947369 0.01667307692307693
0.1116068431429242 0.1403898900880923 0.007933377862683676
0.1075921052631579 0.1618131578947369 0.01667307692307693
0.09881562235837173 0.1320621474042153 0.01989406603555411
0.116628947368421 0.1618131578947369 0.007911538461538463
0.1075921052631579 0.1618131578947369 0.007911538461538463
0.08048157894736842 0.1618131578947369 0.02543461538461539
0.09909600018959869 0.1282790370864796 0.02216602866470668
0.08048157894736842 0.1618131578947369 0.03419615384615385
0.07144473684210526 0.1618131578947369 0.04295769230769231
0.08048157894736842 0.1618131578947369 0.04295769230769231
0.07144473684210526 0.1618131578947369 0.05171923076923078
0.08048157894736842 0.1618131578947369 0.05171923076923078
0.07144473684210526 0.1618131578947369 0.06048076923076924
0.08048157894736842 0.1618131578947369 0.06048076923076924
0.07860765424545807 0.1281362403947936 0.006427126075590102
0.1437394736842105 0.1618131578947369 0.09552692307692309
0.1347026315789474 0.1618131578947369 0.09552692307692309
0.1437394736842105 0.1618131578947369 0.1042884615384616
0.1347040111136237 0.1347040111997554 0.05788766947604375
0.1347026315789474 0.1618131578947369 0.1042884615384616
0.1256657894736842 0.1618131578947369 0.1042884615384616
0.0722140285519417 0.1412512372270167 0.01159652708489972
0.07438909639456186 0.1294765363573318 0.03099376888896761
0.07351752943741618 0.1423578619783326 0.007040567750902204
0.07228951272718809 0.1201696313640259 0.01375929748521677
0.1401499849778134 0.1401499850355606 0.06247253243343306
0.1130063482453827 0.1130063482974828 0.03777105708659185
0.1416962957794082 0.1416962957164468 0.06253365433597372
0.04798878801461304 0.1220112114676311 0.03878155724420886
0.0488946136644284 0.1289711065450341 0.03601882206859697
0.04449523202957706 0.1340384388536026 0.03974346682947311
0.05192368711220455 0.1278613877967751 0.02939716117308822
0.04709830374644237 0.1330279226962145 0.03305155989802537
0.09199330988124767 0.1432875427300414 0.007241997412108507
0.1333725777515304 0.1333725779127313 0.05527119547204207
0.05529420278705944 0.1147057972987669 0.01215276663672423
0.1247520476658789 0.118027798522957 0.03437465532887705
0.08768221026371638 0.1401913413574218 0.001621278186015422
0.09450551698490882 0.1407483468670673 0.001745544178339687
0.1323592692952146 0.1222229917063929 0.01818850011658673
0.09139234602292365 0.1281362406277944 0.006427126225516682
0.1392747454038795 0.1387447984742479 0.001077049405766727
0.1387447981621704 0.1392747449915513 0.001077048988470803
0.1256657894736842 0.1618131578947369 0.007911538461538463
0.1347026315789474 0.1618131578947369 0.007911538461538463
0.1437394736842105 0.1618131578947369 0.007911538461538463
0.1527763157894737 0.1618131578947369 0.007911538461538463
0.1618131578947369 0.1618131578947369 0.07800384615384616
0.1618131578947369 0.1527763157894737 0.07800384615384616
0.1618131578947369 0.1437394736842105 0.07800384615384616
0.1618131578947369 0.1347026315789474 0.07800384615384616
0.1618131578947369 0.1256657894736842 0.07800384615384616
0.1618131578947369 0.1618131578947369 0.0692423076923077
0.1618131578947369 0.1527763157894737 0.0692423076923077
0.1618131578947369 0.1437394736842105 0.0692423076923077
0.1618131578947369 0.1347026315789474 0.0692423076923077
0.1618131578947369 0.1256657894736842 0.0692423076923077
0.1618131578947369 0.1618131578947369 0.06048076923076924
0.1618131578947369 0.1527763157894737 0.06048076923076924
0.1618131578947369 0.1437394736842105 0.06048076923076924
0.1618131578947369 0.1347026315789474 0.06048076923076924
0.1618131578947369 0.1618131578947369 0.05171923076923078
0.1618131578947369 0.1527763157894737 0.05171923076923078
0.1618131578947369 0.1437394736842105 0.05171923076923078
0.1618131578947369 0.1347026315789474 0.05171923076923078
0.1256657894736842 0.1618131578947369 0.01667307692307693
0.1618131578947369 0.1618131578947369 0.04295769230769231
0.1618131578947369 0.1527763157894737 0.04295769230769231
0.1618131578947369 0.1437394736842105 0.04295769230769231
0.1618131578947369 0.1347026315789474 0.04295769230769231
0.1347026315789474 0.1618131578947369 0.01667307692307693
0.1618131578947369 0.1618131578947369 0.03419615384615385
[...]
      <PointData>
        <DataArray type="UInt64" Name="type" format="ascii">
1
1
1
1
1
1
1
1
1
1
1
1
1
1
1
1
1
1
1
1
1
1
1
1
1
1
1
1
1
1
1
1
1
1
1
1
1
1
1
1
1
1
0
0
0
0
0
0
1
1
1
1
1
1
1
1
1
0
1
1
1
1
1
1
1
1
1
1
1
1
1
1
1
0
1
0
0
0
0
0
0
0
0
0
0
0
0
1
0
0
0
0
0
0
0
1
0
1
0
0
0
1
0
0
0
0
0
0
0
1
0
0
0
1
0
0
1
1
1
1
1
1
1
1
1
1
1
1
1
1
1
1
1
1
1
1
1
1
0
0
0
0
0
0
0
0
0
0
0
0
0
0
0
0
0
0
0
0
0
0
0
0
0
0
0
0
0
0
0
0
0
0
0
0
0
0
0
0
0
0
0
0
1
0
0
0
0
0
0
0
0
0
0
0
0
0
0
0
0
0
0
0
0
0
0
0
0
0
0
0
0
0
0
1
1
1
1
1
0
1
0
1
1
0
1
1
0
1
1
0
1
0
1
1
0
1
1
1
1
1
1
1
1
1
1
1
1
1
1
1
1
1
1
1
1
1
1
1
1
1
1
1
1
1
1
1
1
1
1
1
1
1
1
1
1
1
1
1
1
1
1
1
1
1
1
1
1
1
1
1
1
1
1
0
1
0
1
1
1
1
1
1
1
1
1
1
0
1
0
1
1
1
1
1
0
1
1
1
1
1
1
1
1
1
1
1
0
1
1
1
1
1
1
1
0
1
1
1
0
1
1
1
0
0
1
1
0
0
1
1
1
1
1
1
0
0
1
1
0
0
1
1
1
1
1
1
1
1
1
1
1
1
1
1
1
1
1
1
1
1
1
1
1
1
1
1
1
1
1
1
1
1
1
1
1
1
1
1
1
1
1
1
1
1
1
1
1
1
1
1
1
0
0
0
0
0
0
0
0
0
0
0
0
0
0
0
0
0
0
0
0
0
0
0
0
0
0
0
0
0
0
0
0
0
0
0
0
0
0
0
0
0
0
0
0
0
0
0
0
0
0
0
0
0
0
0
0
0
0
0
1
0
0
0
0
1
0
0
0
0
1
0
0
0
0
1
1
1
0
0
0
0
0
0
0
1
1
1
1
1
1
1
1
1
1
1
1
1
1
1
1
1
1
1
1
1
1
1
1
1
1
1
1
1
1
1
1
1
1
1
1
1
1
1
1
1
1
1
1
1
1
1
1
1
1
1
1
1
1
1
1
1
0
1
0
0
0
0
0
0
0
0
1
1
1
1
1
1
1
1
1
1
1
1
1
1
1
1
1
1
1
1
0
0
0
0
0
1
0
0
1
1
1
1
1
1
1
1
1
0
0
0
0
0
0
0
0
0
0
0
0
0
0
1
1
1
1
1
1
1
1
1
0
1
1
1
1
1
1
1
1
1
1
1
1
1
1
1
1
0
0
0
0
0
0
0
0
0
0
0
0
0
0
0
0
0
0
0
0
0
0
0
0
0
0
0
0
0
0
0
1
1
1
1
1
1
1
1
1
1
1
1
1
1
1
1
1
1
1
1
1
1
1
1
1
0
1
1
1
1
1
1
1
1
1
1
1
1
1
1
0
0
1
1
1
1
1
0
1
1
1
1
1
1
1
0
1
0
1
0
1
0
1
0
0
1
1
0
0
0
1
1
1
1
1
1
1
1
1
1
1
0
1
1
1
1
0
0
1
1
1
1
1
0
0
0
1
0
0
0
0
0
0
0
0
0
0
1
0
1
1
0
0
0
0
0
0
0
1
1
1
1
1
1
1
1
1
1
1
1
1
1
1
1
0
0
0
0
0
0
0
0
0
0
0
0
0
0
0
0
0
0
0
0
0
0
0
0
0
0
0
0
0
0
0
0
0
0
0
0
0
0
0
0
0
0
0
0
0
0
0
0
0
0
0
0
0
0
0
0
0
0
0
0
0
0
0
0
0
0
0
0
1
1
0
0
0
0
0
0
0
0
0
0
0
0
0
1
0
0
0
0
0
0
0
0
0
0
0
0
0
0
0
0
0
0
0
0
0
0
0
0
0
0
0
0
0
0
0
0
0
0
0
0
0
0
0
0
0
0
0
0
0
0
0
0
0
0
0
0
0
0
0
0
0
0
0
0
0
0
0
0
0
0
0
0
0
0
0
0
0
0
0
0
0
0
0
0
0
0
0
0
0
0
0
0
0
0
0
0
0
0
0
0
0
0
0
0
0
0
0
0
0
0
0
0
0
0
0
0
0
0
0
0
1
0
0
0
0
0
1
0
0
1
1
1
1
1
1
1
1
1
1
1
0
0
0
0
0
0
0
1
0
0
0
0
0
0
0
1
1
0
1
1
1
1
1
1
1
1
1
1
1
1
1
1
0
0
0
0
0
0
0
0
1
1
1
0
0
0
0
1
1
1
1
1
1
1
1
1
1
1
1
1
1
1
1
1
1
1
1
1
1
1
1
1
1
1
1
1
1
1
1
1
1
1
0
1
1
0
1
1
1
1
1
1
1
1
1
1
1
1
1
1
0
0
0
0
0
0
0
0
0
0
0
0
0
0
0
0
0
0
0
0
0
0
0
0
0
0
0
0
0
0
        </DataArray>
        <DataArray type="Float64" Name="density" format="ascii">
999.7972066079803
999.6345319016534
999.3852369308888
997.1924547012238
1002.961870245349
1000.57583993255
1000.575840511583
999.8080960557332
999.4046574459946
999.4046572200054
999.3646318944624
999.3646320914791
1000.014213276104
1004.835731547354
1002.068180437811
997.8309003757743
1000.223533620341
996.8068617317684
997.7045913956846
997.1202470992114
1000.978715491603
999.236816139689
1000.229864127068
999.2368166882602
1002.487190479684
1000.905271901918
1000.905272148171
1000.978715364135
999.5653462404464
998.5365975801708
994.5219442777041
1002.684654490395
1001.801741554305
1000.229863882841
1001.107012634653
1000.043928797946
999.796772440011
1000.827412121769
1000.043929032226
1000.309029494212
999.0234257671664
998.1596961998712
1000
1000
1000
1000
1000
1000
992.1694451333792
992.7926128495575
999.8485149190046
997.6660207721673
1000.677216114708
1002.952015046823
1002.229551183881
1004.049399492376
1002.542778072016
1000
999.8080966176007
998.8377641699698
1004.980418068466
1001.300307025097
996.9748102296653
996.9748088664027
999.9201795283615
999.920179348522
1000.460316398999
1000.460315897914
1000.269969107165
1004.306910094491
995.4300752010582
999.4567623005502
997.6671585058608
1000
999.4567616521871
1000
1000
1000
1000
1000
1000
1000
1000
1000
1000
1000
1000
1002.229550541507
1000
1012.609920498773
1000
1000
1000
1000
1000
1004.615446045565
1000
1000.295338819313
1009.216563355071
1000
1000
1001.999715087377
1000
1000
1000
1000
1000
1000
1000
1005.792506825631
1000
1000
1000
1000.305654001381
1000
1000
1005.053954233663
999.6500179510588
999.4566453163212
999.7967720960585
999.4174497370225
1001.8877250552
1000.699721480401
1000.182168802565
1000.575840150242
999.4046577191125
1000.978716256358
999.2368155971164
1001.300307797619
1000.254807668177
1002.487190932299
1000.733154693795
1004.306909796387
995.4300737573604
1013.308016909845
1005.79250636961
1001.57948884119
1001.579489741885
1010.208314753424
1018.515132154454
1000.328712245575
1000
1000
1000
1000
1000
1000
1000
1000
1000
1000
1000
1000
1000
1000
1000
1000
1000
1000
1000
1000
1000
1000
1000
1000
1004.549096073261
1000
1000
1002.158708947337
1000
1000
1000
1000
1000
1000
1000
1000.006527588696
1004.549097586503
1000
1000
1000.328711982914
1018.515132405025
1000.905271361691
1000.006527327295
1000
1000
1000
1000
1000
1000
1000
1002.158708552431
1000
1000
1000
1000
1000
1000
1000
1000
1000
1000
1000
1000
1000
1000
1000
1000
1000
1000
1000
1000
1000
995.4285177751898
993.501196098894
999.6104592916008
1000.62445411293
1000.624454074054
1010.208316262386
1000.088408665718
1000
1000.733155269646
998.860926206504
1000
1000.088408816637
1002.611949620159
1000
999.9989309615502
1005.053953166991
1000
999.4566469532782
1000
1002.961870389684
998.8609261262241
1000
996.6814209989834
999.7105918525439
999.7105923902875
1000.028436728513
995.1490872634041
998.5257944777135
999.0485563627351
999.6500176085618
998.7236568053428
997.837765147372
997.837763798045
998.7236560386048
1000.009274817522
999.8783695558279
1003.666868506713
1003.66686886198
1000.291371274419
999.6548592878639
1002.252527800884
997.2716287847956
997.2716303388327
996.7958968353504
996.7958965279456
1001.763218099384
1001.146042530523
1001.146042218578
1000.344212352712
1000.905272058551
998.061140960254
993.7341781324461
998.5365973351908
1002.684656143837
996.0632368925482
996.0632364701681
1001.801741230638
997.3184520711748
997.3184531249542
1000.043928890144
998.2149086630365
988.8887183455004
1000.04392909465
997.494642341087
994.6876190507842
999.0093233250303
1019.657785723014
1001.303048336978
996.6814206336719
1001.716532056505
1000.373452044093
1000.373451612138
999.8783697495553
999.6900928538161
1000.29785601174
999.8783695503305
995.4654771834785
995.4654796726577
995.5954921901175
995.5954931554309
1000
1000.777721186391
1000
999.2356744123414
995.5173777027832
998.9502953798934
998.9502949458338
1000.036015462254
999.2356743774504
1000.036015075204
999.2356740395718
998.0093288292233
1000.141821236441
1000
1000.141822129543
1000
1000.833547621432
1001.460207700249
998.0093277013035
1000.833547678785
997.1782748756196
1000
990.5271960559729
997.178275335625
1000.182168872765
999.922921550898
1001.303047076436
999.922920867608
996.7135808076921
1000.777721068201
1004.983392916788
999.7467485983246
1001.460206288653
1000
999.9629868696491
990.5271956530211
994.6876201542132
988.8887191161507
1000.777721436058
998.9522438039212
994.5931718608012
1000
1013.308014805265
998.9522436006025
1001.548547126498
1000
1000.297500537569
997.1924553263229
1002.611950846591
1012.60992047046
1001.432495476364
999.5653474028412
999.797207257085
1000
1000
1004.835731866873
999.3852364484268
997.7045907780521
998.2814506002236
998.5257950635389
1001.107013227985
1000
1000
994.5219428332514
992.7926121794086
1000
1000
998.8377639594761
998.0093283175913
995.5954914985257
995.5954924312183
995.4654782544499
995.465479923473
998.0093288243618
997.6660228886323
1000.373451236619
1000.373451989122
999.2356741272565
1019.65778485185
1004.049399671803
996.0632361282078
1004.615448422968
997.318452449133
997.3184530638437
996.0632367478405
1000.295338755804
1001.146042183162
1001.146042310902
997.4946416823514
1000.291371581035
1000.8274102663
1002.252528553943
993.7341766218362
1003.666869094973
999.9201794040205
1001.303046896652
1001.303047318559
1003.666868960923
1000.141821375218
1000.14182190517
1000.344212454386
1001.548545889316
996.9748077619095
998.1596959644327
999.9229214469104
1004.980418077808
997.2716304277387
997.2716293274409
1000.028436278102
997.8377639428453
997.8377648999331
999.0485565118182
1001.579489765844
1001.579488927874
999.610459079411
993.5011959287666
995.4285181798992
996.974809726365
1000
1000
1000
1000
1000
1000
1000
1000
1000
1000
1000
1000
1000
1000
1000
1000
1000
1000
1000
1000
1000
1000
1000
1002.158708273711
1000
1000
1000
1000
1000
1000
1000
1000
1000
1000
1000
1000
1004.549097888508
1000.006527813768
1000
1010.20831492921
1018.515132069116
1000.328712318729
1000
1000
1000
1004.549096476752
1000.006527555547
1000
1000
1000
1000
1000
1000
1000
1000
1000
1002.158708400205
1000
1000
995.5173802617926
1000
1000
1000
1000
999.8783690351777
1000
1000
1000
1000
998.950295197409
1000
1000
1000
1000
998.956671152652
1000.03601492036
1000.036014908142
1000
1000.328712132571
1018.515132447455
1010.208316732451
1009.216566180123
1000
1001.432495177549
1000.624453833284
1000.624453917573
996.7958977476662
1000.009274968133
998.7236567239133
998.7236567378742
995.149087367917
996.7958981929447
1002.952011876765
1000.309029800283
999.4567623269247
999.4567619532147
1004.983390106928
999.0234264477451
998.9502951345606
1000.297499653555
992.1694389619576
990.527196569054
990.5271963349767
1000.460315904858
1000.460316060781
999.8485146753768
1002.542778501601
994.5931723500942
1001.460206891117
1001.460205157162
1000.677218080432
999.9201793511363
997.6671587672193
1000.978716174754
1013.308015005177
994.6876195367815
998.2814509056676
1000.833548264448
1000.833548374312
997.1782756304754
997.1782755048844
998.9522443127225
1013.308019412555
988.8887197599076
994.6876176653346
1000.777721746409
996.8068622790449
999.9229207665214
988.8887205240429
1001.999714803349
1001.71653143866
1004.615445403434
1002.068180876612
1002.684654390449
999.3646315865429
998.2149087969585
999.8080964669749
1000.827412356395
1004.049399349543
999.0234254960932
1000.309028840143
1000
998.1596958909132
1000
1009.216563924404
1000
1000
1000
1000
1000
1000
1000.67721515827
999.8485154896243
999.9989307730721
998.9566717053027
992.1694466146779
1003.474430949786
995.872248926484
1001.671625774097
1000.314569431434
995.5173785653004
1000.014213373922
1001.763218288666
996.8068621793553
998.5365975278014
1002.684656426802
997.1202480591669
1001.801741455325
1000.309030231101
999.0234266237584
998.1596963859886
1000
1000
1000
1000
1000
1005.0539533194
1000
1001.432495108301
1002.229550823613
1002.542778869286
999.3646319810367
1001.999715001099
999.7467486364894
1000.295339030475
999.6345307606005
1000.297856222299
1000.827410890313
1000
1009.216565658247
1000
1000
1000
1000
1000
1000
1000
1000
1000
1000
1000
1000
1004.049399157479
999.0093229544906
997.830900493664
1000.291372088936
1004.615448734376
999.8485134893851
997.6660256848874
997.1202477485249
999.4566458794867
1000
992.1694394327268
1002.952012146403
1000.677219105517
998.06114077154
998.187928704554
998.1879283269975
1003.474431456615
999.796772238117
1000.314569462392
995.872248913149
1001.671625687664
1002.961870702515
999.0093231425072
995.5173798268479
1000.014213432384
1000.337769034023
1000
1000
1000
1000
1000
1000
1000
1000
1000
1000
1000
1000
1000
1000
1000
1000
1000
1000
1000
1000
1000
1000
1000
1000
1000
1000
1000
1000
1000
1000
1000
997.1202474200409
999.6900931050068
997.830901001505
1000.088408579712
999.6345306314189
998.9522435653406
999.962986487727
1000.229864186042
1000.229863757128
999.2368169876459
1000.269969523676
999.0093232039999
1000.254807519129
1000.733154834096
1000.733154447347
1001.763217952098
1000.575839971617
1000.088408787527
1000.305653814407
1001.887725065694
999.4046570730968
999.6548592534078
1000.223533897369
999.417449602068
1000.699721251469
1000
1000.291371929914
995.8722488822693
998.5257950459334
998.5257951006785
1001.300306423273
1004.306909703092
999.5653460778592
995.872248780551
1000.295337902178
1000.314569489684
1001.763217851237
999.7972063276671
1001.763217946394
1000.314569344667
1000
1000
1000.33776868223
997.704591625411
1000.014213291262
992.7926128373995
1000.297499326799
1000
997.1924541942881
1005.792506480985
998.1879283609705
998.5365970955901
1002.961870343581
1002.961870527682
1002.229550957857
1000
999.3852361281301
1000
1001.999714479505
1000
995.4300736515647
1000
996.806861063858
1000
1000
997.8309007677108
1001.300308236376
1000
1000
1000
997.7045907089472
997.830901011682
1001.107012552368
997.1924556135619
1000.297500690472
1002.542778550028
998.1879287998884
1004.306910179639
999.7105920533678
1004.835731323112
996.8068625835864
1000
999.7105921348279
998.8377640671265
996.6814206842381
1002.95201387383
1000
1000
996.6814213868588
998.860926152688
999.5653468016404
998.8609259900776
997.6660215626374
1000
1000
1000
1005.053952994406
1000
1000
1000
1001.432495421016
1000
1000
1000
1000
1000
1000
998.5365974964702
1012.609920482157
999.6500179374658
1002.611951107568
1000
1000
1000
1000
1000
1000
1012.609920486864
999.7972080730634
1003.474431010812
1003.474431250186
1002.542777964392
999.7967721620167
992.7926123702805
1004.835732098648
999.7967723066752
998.8377639354165
999.4566463244465
1000.291370929473
994.5219426526144
1001.107013012955
1001.671625703537
1005.792506504444
1001.671625700986
1000
1000
1000
1000
1000
1000
1000
1000
1000
1000
1000
1000
1000
1000
1000
1000
1000
1000
1000
1000
1000
1000
1000
1000
1000
1000
1000
1000
1000
1000
1000
1000
1000
1000
1000
1000
1000
1000
1000
1000
1000
1000
1000
1000
1000
1000
1000
1000
1000
1000
1000
1000
1000
1000
1000
1000
1000
1000
1000
1000
1000
1000
1000
1000
1000
1000
1000
1000
1001.801741315267
996.7135802296791
1000
1000
1000
1000
1000
1000
1000
1000
1000
1000
1000
1000
1000
999.6345316886144
1000.051999332941
1000
1000
1000
1000
1000.166761686147
1000
1000
1000
1000.051999332843
1000
1028.501262206165
1035.574186582327
1000.000000603784
1000.170420880641
1000
1017.585421061882
1000.114227034757
1000
1000.114227034305
1000
1001.250222978975
1036.906386432016
1000.134882543309
1031.698668105643
1036.906386492658
1000
1041.364315875852
1028.501262202139
1000
1031.698668173289
1000
1017.585421013303
1000
1000
1000.166761685734
1039.930668955681
1000.000000603784
1000
1000
1000.134882543322
1000
1000.170420880239
1000
1031.698668073376
1001.250222986759
1000
1028.501262181417
1035.57418652288
1000.109934696343
1000
1000
1000
1028.50126216437
1041.364315874811
1000.134882543355
1000
1000
1000.000000603784
1000
1000.109934695829
1000.000000603784
1039.93066905865
1000.148754093435
1000.051999333031
1000
1000
1000.166761686063
1000
1035.574186521231
1000
1031.698668124967
1017.585421071848
1000
1036.906386472005
1017.585421111225
1000
1000
1000
1000
1000
1001.250222984348
1000.170420880506
1000
1000
1000.051999332948
1000.109934695346
1001.250222980493
1000.148754092669
1000
1000.114227035067
1000
1000
1000.114227034512
1035.574186551458
1039.930669025632
1000.109934695151
1000
1000.170420880295
1000.134882543158
1036.906386433634
1000
1000
1000
1000
1000
1000
1000
1000
1000
1000
1000
1000
1000
1000
1000
999.8080959004759
1000
1000
1000
1000
1000
996.8068617155346
1000
1000
1003.474430927248
998.1879285340352
999.7105921850011
999.7105925221216
996.6814210282937
1002.961871053821
996.6814206116967
998.8609260503217
998.8609260901466
999.6500178660721
1003.474431089714
1012.609920955907
1000
1000
1000
1000
1000
1000
1001.7632180037
1000
1000
1012.609921008469
1000
1000
1000
1000
1003.474431017092
995.8722485545902
1000
1002.542778204557
1001.999714511654
1000.295338521025
1000.291371528635
1000.314569318673
998.1879287707528
997.8309010549524
1002.611950397324
994.5219437240834
998.5365971741203
999.385236563821
999.7967720929364
1000.297500181651
1002.229550660706
1000
1000
1000
1000
1001.432495161455
1000
1000
1000
998.525794947089
997.1924541865233
999.7972068582845
1000
1000
1000
1000
999.5653459039794
1001.107012896021
999.7972077028281
1005.792506279732
1004.306910538779
998.8377639959481
992.7926128848886
1004.306910293245
1002.95201319489
998.8377641111596
1004.835731530957
997.6660233840616
995.4300738022833
999.4566459855472
1001.300306652157
1005.053952943755
992.7926130331095
999.5653459714744
997.7045912693305
1001.300305684568
995.4300744152123
997.1924547439925
1001.107013121071
1004.835731903368
997.7045914121662
1000.314569467278
1001.671625830535
1001.671625623201
1000.739516212831
995.8722490722569
995.8722488753815
1000.739516064617
1000.739516083533
1000.314569291666
1000.739516179153
1000
998.5257947937448
1005.792506418807
1000
999.3852367074577
998.1879282232456
998.1879286216459
1000.739516080407
1000.739516155619
1000.739516017826
1000.73951604435
1002.611949885617
1000.314569669075
995.8722488234827
1003.474431529194
999.6500175605966
1000.297499693375
994.5219438516763
1000
1000
1000
1000
1000
1000
1039.930669059878
1041.364315975734
1000.14875409338
1000
1000
1000
1000.16676168639
1039.930669044326
1000.166761686495
1000
1000
1000
1041.364315877219
1000
1000.148754091878
1041.364315867424
1000.148754092577
1000
1041.364315837416
1000
1000.148754093475
1000
1000
1000
        </DataArray>
        <DataArray type="Float64" Name="density_prev" format="ascii">
999.5456020015588
999.9349894241753
999.3331053436076
997.5968409230511
1002.870054154126
1000.540793276516
1000.540793822155
1000.026398764994
999.5877026760297
999.5877024605537
999.2230039353709
999.2230040933191
1000.134796829141
1004.582307429575
1002.130086377675
997.5658245710172
1000.129078673352
996.9668447054095
997.5157228202279
997.1454223410849
1000.595219941773
999.1950249048134
1000.11102121528
999.1950254058808
1002.297623547838
1000.906147544692
1000.906147790123
1000.595219853193
999.7021531346893
998.6051134095081
994.4798400168892
1002.884654534473
1001.946316982491
1000.111020993196
1000.934608009031
1000.032547923235
999.6897013248324
1000.905883543824
1000.032548184114
1000.367404684129
998.9556242935191
998.1697251690101
1000
1000
1000
1000
1000
1000
991.6340971428334
993.1408933672694
1000.101877395977
996.7330648517844
1000.463197614815
1003.349469385791
1002.051466120176
1004.094349912975
1002.37717957837
1000
1000.026399450325
999.2867988852425
1004.719836926187
1001.699636602341
997.1799193838231
997.179917988777
999.8957368028483
999.8957366370566
1000.373547624986
1000.37354722737
1000.181971471357
1003.964335389519
995.85137899082
999.6171149694949
997.7626887135509
1000
999.6171143426948
1000
1000
1000
1000
1000
1000
1000
1000
1000
1000
1000
1000
1002.051465443324
1000
1012.752156749986
1000
1000
1000
1000
1000
1004.61845295546
1000
1000.191249477082
1009.325964138335
1000
1000
1001.913690687691
1000
1000
1000
1000
1000
1000
1000
1006.160510071759
1000
1000
1000
1000.413671252296
1000
1000
1005.762511165977
999.8340982925409
999.3141963440141
999.6897009621692
999.4913375501839
1002.12019045324
1000.787724243099
1000.28270872677
1000.540793419723
999.5877029027461
1000.595220809068
999.195024394095
1001.6996372369
1000.411870821786
1002.297623980096
1000.641081078059
1003.964335213245
995.8513774789249
1013.514018726259
1006.16050963494
1001.746963088417
1001.746963973803
1010.212211641708
1018.525972295798
1000.393012433891
1000
1000
1000
1000
1000
1000
1000
1000
1000
1000
1000
1000
1000
1000
1000
1000
1000
1000
1000
1000
1000
1000
1000
1000
1004.620488129729
1000
1000
1002.19543858722
1000
1000
1000
1000
1000
1000
1000
1000.103782206005
1004.62048963242
1000
1000
1000.393012164572
1018.525972534635
1000.906147010665
1000.103781946159
1000
1000
1000
1000
1000
1000
1000
1002.195438173859
1000
1000
1000
1000
1000
1000
1000
1000
1000
1000
1000
1000
1000
1000
1000
1000
1000
1000
1000
1000
1000
995.6179619797473
993.6187394816792
999.6563304590401
1000.684834343067
1000.684834286131
1010.21221313924
1000.07319954946
1000
1000.6410816044
999.1058165110861
1000
1000.073199695921
1002.354431587454
1000
1000.105737474702
1005.762510210828
1000
999.3141979578643
1000
1002.870054294677
999.1058164337639
1000
996.8280434958873
999.725124910942
999.7251254067887
1000.124062663227