<VTKFile type="PolyData" version="1.0" byte_order="LittleEndian" header_type="UInt64">
  <PolyData>
    <Piece NumberOfPoints="1688" NumberOfVerts="1688">
      <Points>
        <DataArray type="Float64" Name="Points" NumberOfComponents="3" format="ascii">
0.1067079634301184 0.04386602874120191 0.0170817993225825
0.1367477215435714 0.06415793920902446 0.004979446681463761
0.1256657894736842 0.008186842105263157 0.11305
0.1247594942995109 0.03444845292066983 0.06134167991305105
0.08951842105263157 0.008186842105263157 0.1218115384615385
0.1360587013130446 0.0448416714171968 0.02755705061148147
0.1407869915438296 0.02921300849867524 0.03643961621538933
0.1360337043321184 0.04383078737589233 0.02332406248183302
0.1261692125330628 0.03396629566318812 0.02332406237085916
0.1520667439526546 0.02786876356673309 0.04517238830212205
0.116628947368421 0.008186842105263157 0.11305
0.1421312364238793 0.01793325601247377 0.04517238827433342
0.1251583286018682 0.03394129868242807 0.02755705049125849
0.1376305108793799 0.0323694892365889 0.02935269279926523
0.1333361917008443 0.01767260057016885 0.03476668006333743
0.1523273994496351 0.03666380830980458 0.03476668007987198
0.1518618195468966 0.01813818046861074 0.05605075731491869
0.1332724984719215 0.01975390403143729 0.03967639631248409
0.1339763083166269 0.04572657649024046 0.008603625587406506
0.1075921052631579 0.008186842105263157 0.11305
0.09855526315789473 0.008186842105263157 0.11305
0.1242734234396121 0.0360236917229434 0.008603625423829045
0.1423792494978786 0.01775347618637175 0.03143532523593471
0.1522465238174764 0.02762075050334152 0.03143532522052952
0.1064966538244991 0.02002657230615822 0.02276165839793503
0.1522704013079664 0.02721805396100305 0.03874589602800683
0.08951842105263157 0.008186842105263157 0.11305
0.1427819460301158 0.01772959868955932 0.03874589602865926
0.1453157716947146 0.02468422834183849 0.01513186727259314
0.1252417218997244 0.019551804016626 0.03274262653822518
0.1415361965322152 0.02846380343237206 0.08791820267472239
0.1397609983899711 0.03023900158890116 0.0870976340705568
0.1229137206200291 0.06010044837974673 0.05728827201261434
0.1618131578947369 0.03529736842105263 0.1042884615384616
0.14110959363752 0.01892932447022918 0.02077702561933462
0.1084632028061171 0.06153679719113483 0.06489264043515786
0.1510706754941048 0.02889040634578428 0.02077702560030811
0.1228116683387758 0.03611351780819302 0.02735785067068484
0.131349065966951 0.02482598729393578 0.01576337804160798
0.1418131928832074 0.02818680695071689 0.01061715549534087
0.1618131578947369 0.02626052631578947 0.04295769230769231
0.1618131578947369 0.01722368421052631 0.04295769230769231
0.1618131578947369 0.008186842105263157 0.04295769230769231
0.1237190293921312 0.04628097063057868 0.07070860876004952
0.1371063606475758 0.03289363993868717 0.003125310750572642
0.09644826978775656 0.02286032059301383 0.01826641689281807
0.1618131578947369 0.03529736842105263 0.03419615384615385
0.102854683757877 0.04900107606986114 0.06399646135657616
0.1213852359215529 0.04108730462362513 0.06738628017687079
0.1433561391107235 0.02664386090020278 0.08817566425302646
0.1618131578947369 0.02626052631578947 0.03419615384615385
0.1317504766085368 0.03824952509611744 0.07420108816992434
0.1618131578947369 0.02626052631578947 0.1218115384615385
0.150999031967549 0.019000968017929 0.07856601064238619
0.138075140430858 0.03192485957635247 0.08576091645756831
0.1618131578947369 0.01722368421052631 0.03419615384615385
0.1101067929156548 0.04488207049069284 0.01224273209150363
0.1618131578947369 0.008186842105263157 0.03419615384615385
0.1618131578947369 0.03529736842105263 0.02543461538461539
0.1455668468976186 0.032768370460918 0.08369512690019014
0.1618131578947369 0.02626052631578947 0.02543461538461539
0.1618131578947369 0.01722368421052631 0.02543461538461539
0.1437394736842105 0.008186842105263157 0.08676538461538462
0.1287087343564208 0.03317837432525274 0.07022929677014703
0.1378926327870384 0.02197149397871724 0.0815962129047815
0.1618131578947369 0.008186842105263157 0.02543461538461539
0.1190905575279807 0.04145741667919795 0.02639272311358101
0.1499861759265095 0.02001382406187289 0.0835052733233683
0.1437394736842105 0.008186842105263157 0.09552692307692309
0.1347026315789474 0.008186842105263157 0.09552692307692309
0.1527763157894737 0.008186842105263157 0.08676538461538462
0.1527763157894737 0.008186842105263157 0.09552692307692309
0.148028506054296 0.03210736718126495 0.08159621292156997
0.1618131578947369 0.03529736842105263 0.01667307692307693
0.1618131578947369 0.02626052631578947 0.01667307692307693
0.1618131578947369 0.01722368421052631 0.01667307692307693
0.08876472266267163 0.0238715564586029 0.01543501599580266
0.1172625706333308 0.04499018627701816 0.06539810706463163
0.1034687763612638 0.0665312236342753 0.042430201298622
0.1308839138359905 0.02894912847234335 0.05766241658454951
0.1618131578947369 0.008186842105263157 0.01667307692307693
0.1618131578947369 0.03529736842105263 0.007911538461538463
0.1356445204663898 0.02427655479173052 0.0716069720687471
0.1618131578947369 0.02626052631578947 0.007911538461538463
0.1457234452236005 0.03435547953345778 0.07160697206315747
0.1618131578947369 0.01722368421052631 0.007911538461538463
0.1618131578947369 0.008186842105263157 0.007911538461538463
0.1527763157894737 0.008186842105263157 0.01667307692307693
0.09800357405827405 0.03876979569155862 0.04889843175426323
0.1266735299386745 0.04332647020046014 0.07236176277833058
0.1527763157894737 0.008186842105263157 0.02543461538461539
0.1527763157894737 0.008186842105263157 0.03419615384615385
0.1347026315789474 0.008186842105263157 0.08676538461538462
0.1205951674607976 0.05811129805670742 0.06357040809074417
0.08771186762692178 0.04351110867378169 0.04586219562128008
0.1527763157894737 0.008186842105263157 0.04295769230769231
0.1153813199204694 0.01785257878508007 0.02566532615938119
0.111888701945603 0.04940483250199524 0.063570408097155
0.116628947368421 0.008186842105263157 0.1218115384615385
0.1618131578947369 0.02626052631578947 0.08676538461538462
0.1527763157894737 0.008186842105263157 0.05171923076923078
0.08775105072202365 0.03420666894954768 0.04527990146423572
0.09362483573820063 0.0334013357627564 0.04532866019732652
0.1527763157894737 0.008186842105263157 0.06048076923076924
0.1325015262502042 0.04625942749978366 0.06700317034493299
0.08970911746587641 0.0300301743905965 0.007979910142826971
0.1183963183966101 0.06241044222016864 0.05745698628845426
0.1527763157894737 0.008186842105263157 0.0692423076923077
0.1527763157894737 0.008186842105263157 0.07800384615384616
0.1347026315789474 0.008186842105263157 0.03419615384615385
0.1268494840072555 0.03167736348928526 0.006656728306298711
0.1437394736842105 0.008186842105263157 0.03419615384615385
0.1406710112739658 0.03057678948436259 0.006466031463686591
0.1141172357643997 0.03150339665915156 0.01024015878182363
0.1618131578947369 0.008186842105263157 0.09552692307692309
0.1397120407242557 0.03748000392045773 0.07759781960451537
0.1515131253662486 0.01848687460892065 0.03816566023711706
0.09430580146718494 0.03077929487817111 0.04231738413888298
0.1513826382668843 0.01861736174149051 0.0283403965596132
0.129176132926337 0.03098323199744769 0.06379526142107733
0.1618131578947369 0.03529736842105263 0.1218115384615385
0.09649185528751077 0.03510461867206207 0.002158630204726285
0.1494682988641464 0.02053170116417533 0.01852871547678753
0.08798457190518676 0.02976786971453394 0.04007694413867702
0.1437163831872352 0.02628361676206116 0.009844799898488701
0.1451740126330344 0.03865093403085951 0.01576337799122653
0.1477083033418421 0.03308865175968952 0.0772670403965159
0.1347026315789474 0.008186842105263157 0.04295769230769231
0.1437394736842105 0.008186842105263157 0.04295769230769231
0.1481617306653028 0.02183826932926752 0.08618357969587186
0.08891470170862832 0.04448189011347848 0.02797417343817303
0.08781109283674721 0.04883576851345442 0.01673086934790459
0.1057239741849497 0.07004803867876305 0.05541432023951963
0.1347026315789474 0.008186842105263157 0.05171923076923078
0.1437394736842105 0.008186842105263157 0.05171923076923078
0.1347026315789474 0.008186842105263157 0.06048076923076924
0.1123592405255824 0.04000054049020918 0.05263721708272299
0.1159900877915316 0.04154119388978738 0.05902698896860166
0.1437394736842105 0.008186842105263157 0.06048076923076924
0.1347026315789474 0.008186842105263157 0.0692423076923077
0.1437394736842105 0.008186842105263157 0.0692423076923077
0.1347026315789474 0.008186842105263157 0.07800384615384616
0.1437394736842105 0.008186842105263157 0.07800384615384616
0.1527763157894737 0.008186842105263157 0.11305
0.1098995515922615 0.0470862794038034 0.05728827201477763
0.1347026315789474 0.008186842105263157 0.007911538461538463
0.1437394736842105 0.008186842105263157 0.11305
0.1437394736842105 0.008186842105263157 0.007911538461538463
0.1394232102653915 0.02932898885488145 0.006466031295568226
0.1347026315789474 0.008186842105263157 0.1218115384615385
0.1061423011676205 0.02228525657812591 0.01897180390000728
0.1618131578947369 0.008186842105263157 0.1218115384615385
0.1527763157894737 0.008186842105263157 0.1042884615384616
0.1347026315789474 0.008186842105263157 0.1042884615384616
0.1618131578947369 0.03529736842105263 0.08676538461538462
0.0947055529276956 0.02897150662935622 0.03785013843834695
0.137231629516919 0.02443315312125698 0.0836951268828651
0.1284588060808044 0.05400991223890362 0.05902698896293468
0.136821625651447 0.041291265662692 0.07022929669355323
0.1347026315789474 0.008186842105263157 0.01667307692307693
0.1362448137614072 0.03375518606189015 0.08138468798077506
0.1012903194747242 0.04750587578314661 0.04786204002042611
0.1618131578947369 0.01722368421052631 0.09552692307692309
0.08813941102845604 0.02858009402805649 0.03362451174266917
0.1437394736842105 0.008186842105263157 0.01667307692307693
0.1323871389351847 0.02228442648284413 0.01942021928091099
[...]
      <PointData>
        <DataArray type="UInt64" Name="type" format="ascii">
1
1
0
1
0
1
1
1
1
1
0
1
1
1
1
1
1
1
1
0
0
1
1
1
1
1
0
1
1
1
1
1
1
0
1
1
1
1
1
1
0
0
0
1
1
1
0
1
1
1
0
1
0
1
1
0
1
0
0
1
0
0
0
1
1
0
1
1
0
0
0
0
1
0
0
0
1
1
1
1
0
0
1
0
1
0
0
0
1
1
0
0
0
1
1
0
1
1
0
0
0
1
1
0
1
1
1
0
0
0
1
0
1
1
0
1
1
1
1
1
0
1
1
1
1
1
1
0
0
1
1
1
1
0
0
0
1
1
0
0
0
0
0
0
1
0
0
0
1
0
1
0
0
0
0
1
1
1
1
0
1
1
0
1
0
1
1
0
0
1
0
1
1
1
1
0
1
0
1
0
0
0
0
0
1
0
1
1
1
1
1
1
0
0
1
1
1
1
0
1
1
1
1
0
0
0
0
1
0
0
0
0
0
0
1
1
0
1
1
0
0
0
0
0
0
0
0
0
1
0
0
1
1
0
0
0
0
1
0
1
1
0
1
0
1
1
1
1
0
0
0
0
1
0
0
0
0
0
0
0
1
0
1
1
1
1
1
1
1
1
0
1
1
1
1
0
0
1
1
1
0
0
1
0
0
0
1
1
1
1
0
0
1
1
1
0
0
0
0
1
1
1
0
1
0
0
0
0
0
1
1
0
0
0
0
0
1
0
0
0
0
0
0
1
1
1
1
0
0
0
0
0
1
1
0
0
0
0
0
1
1
0
0
0
0
0
1
1
1
1
1
1
1
1
1
1
1
1
1
1
1
1
1
1
1
1
0
0
0
0
0
1
1
1
1
0
0
1
0
0
0
1
0
0
0
0
0
1
1
0
0
1
0
0
0
0
1
0
1
1
0
1
0
1
1
1
1
1
1
1
0
1
1
1
0
0
0
1
1
1
1
1
1
1
1
1
1
1
1
1
1
1
1
1
1
1
1
1
1
1
1
1
1
1
1
1
1
1
1
1
1
1
1
1
1
1
1
1
1
1
1
1
1
1
1
1
1
1
1
1
1
1
1
1
1
1
1
1
1
1
1
1
1
1
1
1
1
1
1
1
1
1
1
1
1
1
1
1
1
1
1
1
1
1
1
1
1
1
1
1
1
1
1
1
1
1
1
1
1
1
1
1
1
1
1
1
1
1
1
1
1
1
1
1
1
1
1
1
1
1
0
0
1
0
1
0
0
0
1
0
1
1
0
1
1
0
0
0
0
0
0
1
0
1
1
1
1
1
1
1
1
1
1
1
1
1
1
1
1
1
1
1
0
0
0
0
0
1
1
1
0
0
1
1
1
1
1
1
1
1
1
1
1
1
1
1
1
1
1
1
1
1
1
0
0
0
0
0
0
0
0
0
0
0
0
0
0
1
1
1
1
1
1
1
1
1
1
1
1
1
1
1
1
1
1
1
1
1
1
1
1
1
1
1
1
1
1
1
1
1
1
1
1
1
1
1
0
1
1
1
0
1
1
1
1
1
1
1
1
1
1
1
1
1
1
1
1
1
1
1
1
1
1
1
1
1
1
1
1
1
1
1
1
1
1
1
1
1
1
1
1
1
1
1
1
1
1
1
1
1
1
1
1
1
1
1
1
1
1
1
1
1
1
1
1
1
1
1
1
1
1
1
1
1
1
1
1
1
1
1
1
1
1
1
1
1
1
1
0
0
0
0
1
1
1
1
1
1
0
0
0
0
0
1
0
0
0
0
0
0
0
0
0
0
0
0
0
0
0
0
0
0
1
1
1
1
1
1
1
1
1
1
1
1
1
1
1
1
0
0
0
0
0
0
0
0
0
1
0
0
0
0
0
0
0
0
0
0
0
0
0
0
0
0
0
0
0
0
0
0
0
0
0
0
0
0
0
0
0
0
0
0
0
0
0
0
0
0
0
0
0
0
0
0
0
0
0
0
0
0
0
0
0
0
0
0
0
0
0
0
0
0
0
0
0
0
0
0
0
0
0
0
0
0
1
1
1
1
1
1
1
1
1
1
1
1
1
1
1
1
1
1
1
1
1
1
1
1
1
1
1
1
1
1
1
1
1
1
1
1
1
1
1
1
1
1
1
1
1
1
1
1
1
1
1
1
1
1
1
1
1
1
1
1
1
1
1
1
1
1
1
1
1
1
1
1
1
1
1
1
1
1
1
1
1
1
1
1
1
1
1
1
1
1
1
1
1
1
1
1
1
1
1
1
1
1
1
1
1
1
1
1
1
1
1
1
1
1
1
1
1
1
1
1
1
1
1
1
0
0
1
1
0
1
1
1
1
1
1
0
0
0
1
0
0
0
0
0
0
0
0
1
1
1
0
0
0
1
0
0
0
0
0
1
1
1
1
1
1
0
0
0
1
1
1
0
0
1
1
1
1
1
1
1
0
1
0
0
1
1
1
1
0
1
1
1
0
1
1
1
1
0
1
0
1
0
0
1
1
1
1
1
1
1
1
1
1
1
1
1
1
1
1
1
1
1
1
1
1
1
1
1
1
0
0
0
0
0
0
0
0
0
0
0
0
0
0
0
0
0
0
0
0
0
0
0
0
0
1
1
1
1
1
1
1
1
1
1
1
1
1
1
1
1
1
1
1
1
1
1
1
1
1
1
1
1
1
1
1
1
1
1
1
1
1
1
1
1
1
1
1
1
1
1
1
1
1
1
1
1
1
1
1
1
1
1
1
1
1
1
1
1
1
1
1
1
1
1
1
1
1
1
1
1
1
1
1
1
1
1
1
1
1
1
1
1
1
1
1
1
1
1
1
1
1
1
1
1
1
1
1
1
1
1
1
1
1
0
0
0
0
0
0
0
0
0
0
0
0
0
0
0
0
0
0
0
0
1
1
1
1
1
1
1
1
1
1
1
0
1
1
0
1
1
0
1
1
0
1
1
0
1
1
0
1
1
0
1
1
1
1
1
1
1
1
1
1
1
1
1
1
1
1
1
1
1
1
1
1
1
1
1
1
1
1
1
1
1
1
1
1
1
1
1
1
1
1
1
1
1
1
1
1
1
1
1
1
1
1
1
1
1
1
1
1
1
1
1
1
1
1
1
1
1
1
1
1
1
1
1
1
1
1
1
1
1
1
1
1
1
1
1
1
1
1
1
1
1
1
1
1
1
1
1
1
1
1
1
1
1
1
1
1
1
1
1
1
1
1
1
1
1
1
1
1
1
1
1
1
1
1
1
1
1
1
1
1
1
1
1
1
1
1
1
1
1
1
1
1
1
1
1
1
1
1
1
1
1
1
1
1
1
1
1
1
1
1
1
1
1
1
0
0
0
0
0
0
0
0
0
0
0
0
0
0
0
0
0
0
0
0
0
0
0
0
0
0
0
0
0
0
0
0
0
0
0
0
0
0
0
0
0
0
0
0
0
0
0
0
0
0
0
0
0
0
0
0
0
0
0
0
0
0
0
0
0
0
0
0
0
0
0
0
0
0
0
0
0
0
0
0
0
0
0
0
0
0
0
0
0
0
0
0
0
0
0
0
0
0
0
0
0
0
0
0
0
0
0
0
0
0
0
0
0
0
0
0
0
0
0
0
0
0
0
0
0
0
0
0
0
0
0
0
0
0
0
0
0
0
0
0
0
0
0
0
0
0
0
0
0
0
0
0
0
0
0
0
0
0
0
0
0
0
0
0
0
0
0
0
0
0
0
0
0
0
0
0
0
0
0
0
0
0
0
0
1
1
1
0
0
0
0
0
0
0
0
0
0
0
1
0
0
0
0
0
0
1
0
0
0
0
0
0
0
0
0
0
0
        </DataArray>
        <DataArray type="Float64" Name="density" format="ascii">
1005.650981964579
1000.545206151622
1000
999.0293413726744
1000
1005.034251927757
1001.09885485471
1000.513121993076
1000.51312185191
996.5285534725585
1000
996.5285534215893
1005.03425157851
992.3679603750901
1001.533063196251
1001.533062594398
1000.818935520169
1000.73137000954
992.591848005727
1000
1000
992.5918474686925
999.0122154422535
999.0122149738377
988.3439010780814
999.8020558319399
1000
999.8020563093227
993.4520697963994
995.2455300795215
999.0723481464498
1000.088508248949
1001.151296889028
1000
998.903507956028
999.6410346687561
998.903508331272
1000.917379567012
998.1418653134816
1003.138997863564
1000.003971211256
1000.197405683742
1000
1001.502375216888
1002.867523346073
1000.652547899904
1001.806540957342
999.9264253204911
1000.616231387388
999.6433813293971
1000.224514573891
1001.236395177604
1000
998.9005555012966
1000.136080665892
1000.244745463403
1009.620232780659
1000.10064516268
1000.09162926765
999.9630652631342
1000
1000.128996474641
1000
999.1794221427019
1000.355155884282
1000.119205748947
995.9520011269889
1000.121742429851
1000
1000
1000
1000
1000.355155884961
1000
1000
1000
1001.955253931965
1000.799246799311
1000.229985981156
999.6776289442448
1000
1019.467884304568
1000.493724491349
1001.374056005758
1000.493724483553
1001.493052036108
1000.666767394146
1000
1000.738204334309
1000.997342772227
1000.128996505548
1000.244745492104
1000
998.1049803681341
1000.348141539375
1000.197405655374
989.5793433755102
998.104980403
1000
1000
1000.527349184346
997.5462322690745
999.6632875304307
1000
1000.056046380395
1000.37030746202
1000.409255949367
1000
1000
1001.806541193372
999.8596636682804
1000.224514631481
1002.207725390561
997.6370589293556
1000
999.7326362026198
996.6537412089617
1001.186356717609
999.9361259185016
999.1711487347327
1000
1001.037195335936
1000.266396944287
1001.145359303107
1001.477282882194
998.1418668275179
1001.330330516409
1000
1000.003971174255
1000.090001065788
991.9062341724309
1003.086757075196
999.5852888415968
1000
1000.400746255596
1000
1000.114043534657
997.0492143478201
1000.18884519193
1000
1000
1000
1000
1000
1001.151296556367
1019.467884217474
1000
1001.374056112932
1002.207725503366
1000
1006.888622776073
1000
1000
1000
1000
999.9682050847263
999.9630652761086
997.0492142130473
999.1794221864568
1000
1000.361400145223
1000.159669527109
1000
1001.24107417523
1000
998.566840137154
999.3927912249393
1000
1000.091629233869
998.2174610791652
1000
991.9106530993507
999.9264255834489
988.3125709222941
1001.979516095055
1000
1002.296077509792
1000
1002.62610302054
1000
1000
1000
1000
1000
998.5668404165873
1000
990.584412091765
999.7326361009679
994.6730513572902
1013.344927887335
998.0865427953528
996.8149888220725
1000
1000
994.6730516121527
1000.293876066254
999.7393355114795
999.2907652945638
1000
1003.017525569497
1000.241832447901
1001.57706698173
1007.721951291466
1000
1000
1000
1000
991.6449391954843
1000.527349268993
1000
1000
1000.400746524964
1000
1000
1000.162854894455
999.1024740975473
1000
1003.017525836599
1003.16467336236
1000
1000
1000.188845341591
1000
1000
1000
1000
1000
1000
993.9507612390448
1000
1000
1000.445693002332
1000.799246905162
1000
1000
1000
1000
999.3814827884131
1000
1000.445692923814
1000.678989883586
1000
1000.911975717653
1000
1001.105617059248
999.1269092795867
1003.299425049084
1001.330330523914
1000
1000
1000
1000
1001.28549923077
1000
1000
1000
1000
1000
1000
1001.49305204876
998.2752025679096
1000
998.5976420360322
999.3573982335715
1000.056046342267
986.0380260069884
998.5976421973339
999.1711488478165
996.009357084364
989.8669110320825
1000
995.9424375916043
1001.359600484796
999.0293414090141
1001.359599436096
1000
1000
1005.376630619744
1005.3766300813
994.5911871039282
1005.650344459103
1000
1014.36734838199
1000
1000
1000
999.2849465581944
1000.893251111066
999.2849477976753
1000.731369443023
1000.670519950152
1007.970739997434
999.8934729664138
999.8934734569013
1001.028062111603
1003.432587278139
1000
1000
1000
1000.850312514922
993.8637043574648
1004.152702330172
1000
1000.122809711189
1004.830012458391
1017.800660001163
1022.932703588384
1025.58142444768
1027.802434308726
1000.122808802365
1000.913769295465
1000
1000.377029787875
1000
1000
1000
1000.913768686183
1000
1000.143831455536
1000.028547089088
1000
1000
1000
1002.564290696815
999.2071121370865
1000.616231431846
1001.813759249271
1000
1000
1000
1000
1000
1000.895006887095
999.207111823183
1000
1000
1000
1000
1000
999.2359429638304
1001.150709974726
1000
1000
1000
1000
1000
998.1196546807467
999.8821989704782
996.4320799259151
1000.784367454488
1001.150709941543
1002.078199207514
997.9749230320451
1002.078198751628
1000.413914279603
999.345456309873
991.5437927679033
1000.503738397552
1000.360601652266
998.196636977146
996.6661619410471
1004.062412749406
1002.477174795228
1000.850313130722
1001.116168947501
999.3852123151396
1000.670520218126
1007.970740006155
1022.932703335349
1017.800659717085
1004.830012502409
1002.564290158917
996.4320811552619
999.3852120464879
997.2913073427943
1003.432586976835
1005.65034431257
999.6776292194163
1000
1000
1000
1002.500129405091
1000
1000
1000
1000
1000
994.4848799646352
999.3447697312008
1000
1000.143831561235
980.836630221172
1000.028547098845
1000
1000
1000.377029790671
1000.388717405029
1000
1005.650982097166
988.897321482137
1000
1000.298835234165
1000
1011.409395435213
988.312567774644
1001.528897556823
988.3439016083819
990.5844124018332
1013.344928018593
995.2455298916354
1000
1002.296077583835
999.8596635468499
997.6370573493517
1000
1000
1000
1000.510485885795
997.8050562030609
1009.620231318823
1006.442790867773
993.9507617899818
989.5793445215481
991.9106535117571
1001.187566061983
1003.078649835017
1015.183242585836
1003.665799889426
1011.409395678188
1005.029286627336
1000.811208289877
999.1024740295327
1015.450308976643
1005.742409659596
997.7186602173439
1003.221984002098
1005.029287002189
1000.510482645661
1005.574065993355
998.1776996111103
991.6449400410826
999.3814828868411
999.6875914519208
1000.811208511785
1006.442792118464
1000.545205471126
997.8050557237532
1000.319644380993
999.6960662695941
999.696067353636
1003.196124451201
1000.445941160381
1003.078649699959
1000.298835082445
1000.319644343408
1000.917379665689
996.3778031929083
1003.196123819196
994.4848801534636
999.3447691546214
1003.665799876257
998.5652052701137
1001.187565729187
1001.646507912972
998.2558286271887
1008.922886482975
1000.409255594674
995.3970548691535
1003.221984404263
996.8679184877346
995.9520009436453
996.2442803707539
999.3134729517345
998.8559180667726
991.0511296625392
998.2558286047997
1005.89682458571
998.3927530999517
999.3134733781962
1005.5740660739
994.131124465496
1002.430528864496
1001.922474146177
997.372911022696
996.9765546729465
999.851353619068
998.3927534533636
997.8039923068146
996.9765539096262
998.5652055897948
1001.922472452119
998.177699279132
1000.445940034541
995.3970547261387
1002.192958164796
1000.893250989115
999.6051784204955
1004.665459262649
1000.060646621351
997.718660612622
989.4546334536551
1008.922886636757
995.8576648914639
999.5852890588792
1002.537467622625
1004.665459003242
998.8559180396999
1000.738205019337
999.2617860110381
995.405588937766
1001.183675529615
1001.165203732608
1001.165203952084
1002.430528187577
1001.528897678907
997.3729107118894
1001.268345749898
1000.79999414177
1000.799993855355
999.7374577927609
999.737457692027
993.6686282052933
1001.105617434519
1002.192957655304
995.8576641727877
999.6875913956131
1000.114043439743
999.9177571032527
1000.159668898603
996.9150652430433
1001.64650687501
996.377801542514
1005.498564973312
997.7404286629087
997.7404286499359
1000.911975415044
999.7393360068886
999.2617865624162
1003.412377852647
1003.311987462664
1000
1000
1003.412377623234
1000
1001.037194556404
1000
1000
1000
1000.293875682635
1000
999.8513534955657
991.0511299418455
1000
996.8679180136951
1000.060645917103
1000
1000
1000
1000
1000
1000
1001.268345835449
1000
998.4334564552449
989.4546340559074
1003.311988022846
1005.498565502867
998.9784493657911
1004.930270778185
999.544130410047
1000.409256445745
1001.151297407573
1000.799993864001
999.1024734394121
997.0492145198849
1000.11404367894
1000.298834996968
988.8973215404785
980.8366294637416
994.4848808016259
999.2907658991858
1003.299426540854
1000
1000
1000
1000
1000
1001.268345034547
995.8576644990718
995.405588397834
1000
1025.581424301045
1001.037193673737
996.8149897182155
1000.652548597377
1004.665460030562
999.7393360165336
997.7186606098245
989.4546338000687
999.3814827675634
989.86691108825
1001.105617194942
998.392753341544
1000.319644087748
996.976553540083
1002.430528628621
1001.528897577446
1001.186356940569
1008.922886628376
995.397055474917
1000.060646165607
997.6370562233404
1000.510487965074
1022.932703217954
1017.800659636901
1003.432586741276
1007.970740465507
1000
1000
1000
1000
1000
1000
1000
1000
1000
1000
998.0865431123968
999.9682053427123
1006.442790196951
1000.545206731547
1002.296078378992
1001.577066166289
1003.017525887746
998.8559182030053
990.5844133632872
1002.62610307541
1003.078650151981
1003.196123768126
991.6449417855411
1006.888623311643
999.6960658961862
989.5793460438645
991.0511299159023
1009.620230388598
1003.221984163864
1005.742410361083
1005.029287028823
1000.445942006191
996.3778034771829
1000.738204775293
988.3439026694233
1011.409395111176
993.9507618126496
1005.650982411659
997.8039911412683
1005.498565052091
1001.922474165107
1003.311987501752
1015.18324259173
1003.6657993738
999.851354363917
1001.646507013271
999.585289078923
999.6051788155316
999.5852889462698
1000
1000.895007027014
989.8669108529466
1000.159668865197
1000
996.2442808883308
1002.477175463347
996.8679181284352
998.8215453411266
1002.477175140354
1002.477174888223
996.244280449974
995.1234802768494
995.1234803255809
995.1234804160323
995.1234805292229
1004.062412879138
1004.062413156392
1004.06241334549
996.66616263643
996.666162116373
996.6661628156074
996.8679183881474
998.8215456093054
998.8215454989697
1000.503738704626
1000.503738778697
1000.503738769023
998.82154509859
1000.784367563822
1000.784367615631
1000.784367677219
1000.229985736893
1002.192957644084
1002.19295756532
1006.888622817507
996.9150651965582
996.2442806899556
999.6632876428788
1000.348142001816
1004.930270490129
997.5462319261864
997.9749235671866
1000.413913538492
1002.500129025091
998.9784494866331
998.1966374512104
1007.721951113567
999.6632875824262
1005.896825047484
998.1966370550365
1001.813759688585
1001.186356595705
991.906234713098
995.4055884990397
999.9682049916922
998.2174610450522
997.803991340687
1001.57706675467
1002.537467080664
1002.537467430349
1003.086756526929
1005.742410219114
1003.086756645594
1000.348142363261
1001.145360074002
1015.183242401425
980.8366306584811
1001.241074799555
999.8821985678927
1015.450308631087
1001.145359982286
1001.241075029749
1001.813759431798
1007.721951004981
999.5441305651013
998.2752025864822
998.2752025968185
986.0380251371533
986.0380253455937
1004.930270751996
997.5462321036892
998.9784492786354
1005.896824953769
1000.413913313579
998.2174603925453
991.9062349308855
999.8821978968535
997.9749225216829
1002.626102956265
996.8149894459713
998.0865428798899
1000
1000
1000
1000
999.5441306571668
1002.500129151211
1000.652548471353
1001.955253686702
1001.955253910169
999.6051787129828
1000
1000
1000
1025.581424398996
1000
1001.979515793958
1000
1000
1000
1000
1000
1000
1000
1000
1027.802434313528
1000
1000
1000
1000
1000
1000
1000
1000
1027.802434352184
1001.979516236274
1000.370307470476
1000.370307842916
1003.299426138896
1003.164672872473
1003.164673639428
999.2907657697335
1000.895006688758
998.1196548408947
998.1196547815836
999.235943045907
999.2359429117573
1001.183675626629
1001.183675763708
1015.450308175497
1000.895006719195
1000
1000
1000
1000
1000
1000
1000
1000
1000
988.8973210503162
1000
1000
1000
1000
1000
1000
1000
1000
1000
1000
1000
1000
1000
1000
1000
1000
1000
1000
1000
1000
1000
1000
1000
1000
1000
1000
1000
1000
1000
1000
1000
1000
1000
1000
1000
1000
1000
1000
1000
1000
1000
1000
1000
1000
1000
1000
1000
1000
1000
1000
1000
1000
1000
1000
1000
1000
1000
1000
1000
1000
1000
1000
1000
1000
1000
1000
1000
1000
1000
1000
1000
1000
1000
1000
1000
1000
996.8679180645435
991.051129874123
995.3970550355307
999.6960685065018
1005.65098223887
993.9507609747424
1000.445692744272
996.6661619103264
998.1049802394548
999.6410344991797
995.8576640500771
1002.192957574593
1002.477174565016
996.8679177763371
996.2442804041351
999.6410347120022
1000.3887173366
1001.268344830053
998.8559180613004
999.5852888112349
999.9264252735903
1008.922886307026
998.2558291476417
998.8559179787966
998.8559179263931
995.8576642285071
1003.311987919436
1000.409255939432
998.8559179218315
994.1311250828886
997.3729106132387
1001.813759747764
999.8821994866736
997.9749244762586
1002.192957696612
996.9765548590175
997.3729113496555
1001.151297069247
1001.813759064191
996.8679186026222
996.9150650108724
999.9177576927261
998.3927531226324
1003.017525547965
1004.06241334291
996.3778016250183
1000.445940213445
999.2617860389865
1002.430528464326
996.8679179883212
1003.311988056683
1002.430528089286
995.8576641053895
998.2558278184579
1004.665459282957
1003.196124121216
1001.268345904451
1005.498565806266
996.9150652841059
996.3778030655091
1000.784367459111
1000.784367472389
999.9177568592306
1002.192958316566
999.1024734047177
1001.646508027874
1000.229986135327
1000.229985822121
1005.02928645432
1000.895006814753
1000.895006740669
1000.388717612026
1000.44594170243
1000.159669604828
1000.79999428527
1001.268345038174
998.1196547321042
998.119654671621
999.2359428437439
999.2359430211662
999.5852888339116
999.5852888609951
1000.413913614952
998.1966365317525
997.3729113099992
996.6661630945625
999.5852889723828
994.1311242533076
1004.062412903273
1000.413914204512
999.2617868829328
997.9749216107161
1001.268346671106
997.3729103241142
999.8821978410516
1002.477175580053
996.2442808714876
998.1966376087603
1000.503738715717
995.8576647955371
1009.620232546132
1002.192957845462
1000.503738528131
1000.895006650069
996.6661616002917
1002.47717480064
1004.062412783257
998.8215451597371
1000.503738564097
995.123480040391
995.1234802756322
995.1234802839174
995.1234804165339
998.8215451927814
1000.784367549777
998.8215453494197
998.8215452698539
996.2442801345019
988.3439012477621
1001.037195223901
1000.652548069563
1001.979516098732
996.8149888498243
999.6051784268133
1000
1003.432587026909
1001.955253845299
997.546232305195
1000
999.5441303332908
1001.18635675244
1001.145359301174
989.8669107887848
1006.888622949578
999.9682050834592
1000
1000
1000
1001.241074042592
1000
1000
1000
1000
1000
1000
1000
1000
999.2907655227239
1001.577067022728
1007.72195121783
1000
1000
1027.802434338489
991.6449395937988
1000
1000
1000
1000
1025.581424485638
1003.164673142522
1003.299425295803
998.27520268911
1003.078649229092
986.038025988826
980.8366303130759
1022.932703666864
1000
1000
1015.183243502647
999.6632876372768
1003.221984012854
1000
1000
1002.626102826713
997.6370583691566
990.5844126988402
998.0865426342116
1006.442791766027
1000.545205515162
1005.74240979428
1000
1015.450308733885
1000
1000
1000.738204230053
988.8973214256155
1000.348141485219
997.7186603296095
1000
1000.370307416486
997.8039923982027
1004.930270621567
1000
999.3814829638018
1001.105616999624
1000.319644513389
1000.06064565495
1000
995.4055891349443
1000
989.4546338777131
1000
1000
1001.528897557221
1000.114043916697
999.7393357145867
1001.922472144398
996.244280871472
1004.062412652596
1002.477174794223
996.6661625126934
998.1966369484774
1000.503738643274
1000.413914258563
997.9749230178955
999.8821989403663
1003.08675697021
998.2174609707805
1001.813759210945
1005.896824793448
1002.500129663208
998.9784495127365
1002.537467992972
1000.784367538016
991.9062341941823
1000.895007005827
998.1196546277322
999.2359428487625
1001.183675428861
1000
1000
1000
1000
1000
1000
1000
1000
1000
1000
1000
1000
1000
1000
1000
1000
1000
1000
1000
1000
1000
1000
1000
1000
1000
998.3927533466513
999.5441312160764
998.1049802159022
1001.105617250458
997.9749240972634
1000.413914113518
1002.500128851538
999.9264252277484
1000.056046435683
1000.056046347154
998.255827481559
999.1794221231386
999.1794221548821
1000.355155886179
1000.409255935365
1000.34814212734
1000.388717563865
998.8559180668688
1001.151297082543
997.0492142263487
1000.893251031741