<VTKFile type="PolyData" version="1.0" byte_order="LittleEndian" header_type="UInt64">
  <PolyData>
    <Piece NumberOfPoints="1528" NumberOfVerts="1528">
      <Points>
        <DataArray type="Float64" Name="Points" NumberOfComponents="3" format="ascii">
0.07773465121627683 0.1305749634905575 0.0476475568969376
0.1118887019194343 0.1205951674431465 0.06357040808684877
0.06974239618927991 0.1356208326451643 0.04642609513964843
0.09115294195207661 0.1117582773869767 0.0252842568144015
0.08705597885608446 0.1116683999328685 0.01069704891546411
0.07773961795378032 0.1219745825704082 0.04080875340016146
0.1028546837516933 0.1209989239549209 0.06399646135906856
0.1325015262697485 0.123740572498908 0.06700317036935818
0.1237405724881099 0.1325015262734118 0.0670031703605371
0.1100410284610022 0.1148661954078972 0.0405728202714542
0.1287087343284317 0.136821625644241 0.07022929674976365
0.1368216256319624 0.1287087343140365 0.07022929670685205
0.1480285060318663 0.1378926327794577 0.08159621289491785
0.1378926327684856 0.1480285060242064 0.08159621288107752
0.107589557766984 0.1183963184197448 0.0574569862978077
0.08228813237565814 0.1264888913723781 0.04586219560064916
0.1139206231238736 0.1139206231277237 0.05304288098693104
0.1021491320184761 0.1101349183712466 0.06109794370728703
0.1481617306683676 0.1481617306710892 0.08618357970745617
0.109899551635124 0.1229137206383971 0.0572882720237238
0.07637516426374563 0.1365986642762078 0.04532866018507171
0.1159900877622958 0.1284588060983588 0.05902698896383495
0.1206345282289767 0.1323600111786462 0.05898288275536955
0.1355515470402132 0.1247594942270645 0.06134167988678316
0.1369113482207906 0.1477083033315227 0.07726704039654508
0.1247594942693952 0.1355515470507641 0.0613416799046801
0.0869139033365494 0.1108329719842934 0.02372548849419363
0.1178192779891335 0.1178192779904305 0.04780412970854695
0.1291761329000339 0.1390167679707415 0.0637952614125068
0.1390167680127687 0.1291761329337798 0.06379526143553814
0.1323600111981111 0.1206345282165974 0.05898288274647023
0.08203075746210974 0.1209413119062478 0.03814470899241077
0.1053530050792427 0.121979206225664 0.05144197971340043
0.06959919299080107 0.1373772032663303 0.04433094233917755
0.1110799685208021 0.1177079884698525 0.04439474402715463
0.1123592405075216 0.129999459496857 0.05263721707077505
0.1477083033519554 0.1369113482404727 0.07726704041085501
0.08224894927412175 0.1357933310762229 0.04527990147683363
0.1356445204812781 0.1457234452339422 0.07160697210317725
0.1103635143643116 0.1272679085740819 0.02515303612517786
0.1012903194797289 0.1224941242130049 0.04786203999363108
0.1137002170851799 0.1346739929708945 0.04351162927721362
0.1457234452409739 0.1356445204882894 0.07160697210026988
0.1161863140942385 0.1454678132591127 0.03040986390981119
0.106215981478187 0.1479898739134818 0.0259697501819587
0.1157507835578117 0.1490997942379534 0.02883598689843466
0.116628947368421 0.1618131578947369 0.09552692307692309
0.1075921052631579 0.1618131578947369 0.09552692307692309
0.116628947368421 0.1618131578947369 0.08676538461538462
0.1075921052631579 0.1618131578947369 0.08676538461538462
0.116628947368421 0.1618131578947369 0.1042884615384616
0.1075921052631579 0.1618131578947369 0.1042884615384616
0.1041344853483187 0.1264905688878194 0.02384171171978534
0.112079548569993 0.1357898956040056 0.03914027604348294
0.07569419855089289 0.1392207051070098 0.04231738417640957
0.1136852958321114 0.1365881820987328 0.0342301933286822
0.1036258846498556 0.1402583806886376 0.03130654376475418
0.1152867220947179 0.1407301661839868 0.03136688007150668
0.1046100894717594 0.1433137257278117 0.02674217985947936
0.1177407443310449 0.1301878337231852 0.001910325553360412
0.1131609940908264 0.1408523352225217 0.01240916918154604
0.1046892658543652 0.1305172539041027 0.05052100205737529
0.1143039931483851 0.1473423002181715 0.01712653888685352
0.1059643093298845 0.1436823386752298 0.01448989739567013
0.1149896749067598 0.1507923239560688 0.02145317660010069
0.1061182000582123 0.1385943353625595 0.009360135861788009
0.1141172357131942 0.1384966033532626 0.01024015882337758
0.08243140108941852 0.116653636149036 0.0326413968541775
0.1054530155403092 0.1294472535922923 0.03066094497320623
0.1045375845524662 0.1164331975974565 0.02582951466969549
0.116628947368421 0.1618131578947369 0.07800384615384616
0.1148661954393277 0.1100410284602204 0.04057282027023207
0.1338864820859567 0.1228116682717897 0.02735785066244651
0.1228116683225778 0.1338864821387329 0.02735785070311726
0.07752429745837486 0.1174521653892747 0.03268479438095377
0.08201542809956132 0.1402321302767306 0.04007694417510566
0.1383000691174162 0.1383000691407639 0.03905229774054583
0.07529444709219797 0.1410284933428425 0.03785013849068081
0.1260015965697491 0.1473065207726409 0.03508555009236776
0.1473065208289893 0.1260015965615211 0.03508555006533337
0.1514326822702207 0.1425697727236431 0.05843217230633191
0.1425697727320681 0.1514326822731579 0.05843217230648738
0.1481813180957397 0.1340377539551 0.04355568196952618
0.1340377539431038 0.1481813181139706 0.0435556819365108
0.0788470580329181 0.1117582773631205 0.02528425682387937
0.1509541397773555 0.1509541397686547 0.07198409062422319
0.08308609667338157 0.1108329719696953 0.02372548848112625
0.08186058898223364 0.1414199059508651 0.03362451178242286
0.07563439334102495 0.1417012047557578 0.03185285630892122
0.08222369346434485 0.1409632869038122 0.02696146300659953
0.08073750693067951 0.132696747677491 0.0116057590737526
0.08294402114296788 0.1116683999434882 0.01069704892031904
0.1515704830708456 0.1425569757004456 0.05202452367363898
0.1514986412896941 0.1514986412599585 0.06420879339231496
0.1075921052631579 0.1618131578947369 0.07800384615384616
0.1425569757264953 0.1515704830977058 0.05202452364611879
0.1256657894736842 0.1618131578947369 0.09552692307692309
0.08157369219266702 0.1473926010480674 0.01948054995438436
0.1437394736842105 0.1618131578947369 0.08676538461538462
0.116628947368421 0.1618131578947369 0.0692423076923077
0.1075921052631579 0.1618131578947369 0.0692423076923077
0.116628947368421 0.1618131578947369 0.06048076923076924
0.1075921052631579 0.1618131578947369 0.06048076923076924
0.116628947368421 0.1618131578947369 0.05171923076923078
0.1347026315789474 0.1618131578947369 0.08676538461538462
0.1256657894736842 0.1618131578947369 0.08676538461538462
0.1075921052631579 0.1618131578947369 0.05171923076923078
0.116628947368421 0.1618131578947369 0.04295769230769231
0.07955130570585064 0.1254219321539057 0.01785922159275185
0.0762095183296751 0.1417137598847263 0.02599079060784359
0.1075921052631579 0.1618131578947369 0.04295769230769231
0.06531073411110892 0.1305172539432231 0.05052100206085654
0.116628947368421 0.1618131578947369 0.03419615384615385
0.08048157894736842 0.1618131578947369 0.007911538461538463
0.1075921052631579 0.1618131578947369 0.03419615384615385
0.1061423011508444 0.1477147434180968 0.01897180392537058
0.08048157894736842 0.1618131578947369 0.01667307692307693
0.116628947368421 0.1618131578947369 0.02543461538461539
0.1075921052631579 0.1618131578947369 0.02543461538461539
0.1112778172763127 0.1261609804893939 0.004593645319431051
0.116628947368421 0.1618131578947369 0.01667307692307693
0.115381319943071 0.1521474212324854 0.0256653261730321
0.1075921052631579 0.1618131578947369 0.01667307692307693
0.1083527297778773 0.1348359702543631 0.0457351019603699
0.1101067928049509 0.1251179294902912 0.01224273199229782
0.116628947368421 0.1618131578947369 0.007911538461538463
0.1075921052631579 0.1618131578947369 0.007911538461538463
0.114556483653684 0.1371080732060567 0.002831261691576962
0.08048157894736842 0.1618131578947369 0.02543461538461539
0.1064966538598519 0.1499734276593737 0.02276165841429465
0.1079758841058796 0.133323080528839 0.04818942929623061
0.106707963382323 0.126133971106429 0.01708179921817215
0.08029088253023257 0.1399698255742274 0.007979910112257488
0.08048157894736842 0.1618131578947369 0.03419615384615385
0.07144473684210526 0.1618131578947369 0.04295769230769231
0.08048157894736842 0.1618131578947369 0.04295769230769231
0.07144473684210526 0.1618131578947369 0.05171923076923078
0.08048157894736842 0.1618131578947369 0.05171923076923078
0.07144473684210526 0.1618131578947369 0.06048076923076924
0.08048157894736842 0.1618131578947369 0.06048076923076924
0.08047366988692356 0.137771579002739 0.005852150991167993
0.07916460759737948 0.1121448409435396 0.01330282000896318
0.0810852983100855 0.1255181098775026 0.02797417342336479
0.07548545718849048 0.1284290742391736 0.02902245268285669
0.07899894142575793 0.1154722340892761 0.004877347378343833
0.08218890713623472 0.1211642314804212 0.01673086931383435
0.1437394736842105 0.1618131578947369 0.09552692307692309
0.1347026315789474 0.1618131578947369 0.09552692307692309
0.1437394736842105 0.1618131578947369 0.1042884615384616
0.1397609983881405 0.139760998412402 0.08709763406725127
0.08038802781848799 0.1437538247271158 0.01175702188278228
0.1347026315789474 0.1618131578947369 0.1042884615384616
0.1256657894736842 0.1618131578947369 0.1042884615384616
0.08274190735894216 0.114369637155856 0.002060960299029049
0.0812352773549361 0.1461284435352305 0.01543501595110152
0.08842630781709251 0.1473926010488261 0.01948054999153583
0.09692050647343201 0.14777869239967 0.02267288654895122
0.08048157894736842 0.1618131578947369 0.08676538461538462
0.07144473684210526 0.1618131578947369 0.1042884615384616
0.07144473684210526 0.1618131578947369 0.08676538461538462
0.08048157894736842 0.1618131578947369 0.1042884615384616
0.08048157894736842 0.1618131578947369 0.09552692307692309
0.08926249298496913 0.1326967476568633 0.01160575905982902
0.1446822903148153 0.1446822903402903 0.08805395404749522
0.1250098137263953 0.1172625706466296 0.06539810704762157
0.1462933483185968 0.1462933483034759 0.08748529651746965
0.09855526315789473 0.1618131578947369 0.09552692307692309
[...]
      <PointData>
        <DataArray type="UInt64" Name="type" format="ascii">
1
1
1
1
1
1
1
1
1
1
1
1
1
1
1
1
1
1
1
1
1
1
1
1
1
1
1
1
1
1
1
1
1
1
1
1
1
1
1
1
1
1
1
1
1
1
0
0
0
0
0
0
1
1
1
1
1
1
1
1
1
1
1
1
1
1
1
1
1
1
0
1
1
1
1
1
1
1
1
1
1
1
1
1
1
1
1
1
1
1
1
1
1
1
0
1
0
1
0
0
0
0
0
0
0
0
0
0
1
1
0
1
0
0
0
1
0
0
0
1
0
1
0
1
1
0
0
1
0
1
1
1
1
0
0
0
0
0
0
0
1
1
1
1
1
1
0
0
0
1
1
0
0
1
1
1
1
0
0
0
0
0
1
1
1
1
0
0
0
1
0
0
0
1
1
1
1
1
1
1
1
1
1
1
1
1
1
1
1
1
1
1
1
1
1
0
0
0
0
0
0
0
0
0
0
0
0
0
0
0
0
0
0
0
0
0
0
0
0
0
0
0
0
0
0
0
0
0
0
0
0
0
0
0
0
0
0
0
0
1
0
0
0
0
0
0
1
0
0
0
0
0
0
0
0
0
0
0
0
0
0
0
0
0
0
0
0
0
0
0
0
1
1
1
1
1
1
1
1
1
1
1
1
1
0
1
1
0
1
1
0
1
1
0
1
1
0
1
1
0
1
1
0
1
1
1
1
1
1
1
1
1
1
1
1
1
1
1
1
1
1
1
1
1
1
1
1
1
1
1
1
1
1
1
1
1
1
1
1
1
1
1
1
1
1
1
1
1
1
1
1
1
1
1
0
0
1
1
0
1
1
0
1
1
1
1
1
1
0
1
1
1
1
1
1
1
1
1
1
1
1
1
1
1
1
1
1
1
1
1
0
1
0
0
0
1
1
1
1
1
1
1
1
1
1
0
1
0
1
1
1
1
1
1
0
1
1
1
1
1
1
1
1
1
1
1
1
1
0
1
1
1
1
1
1
1
1
1
0
1
1
1
1
0
1
1
1
1
1
1
1
1
1
1
0
0
1
1
1
1
1
0
1
0
1
1
1
1
1
1
1
0
0
1
1
0
0
1
1
1
1
1
1
1
1
1
1
1
1
1
1
1
1
1
1
1
1
1
1
1
1
1
1
1
1
1
1
1
1
1
1
1
1
1
1
1
1
1
1
1
1
1
1
1
1
1
1
1
1
1
1
1
1
1
1
1
1
1
1
1
1
1
1
1
1
1
1
1
1
1
1
1
1
1
1
1
1
1
1
1
1
1
1
1
1
1
1
1
1
1
0
0
0
0
0
0
0
0
0
0
0
0
0
0
0
0
0
0
0
0
0
0
0
0
0
1
0
0
0
0
0
0
0
0
0
0
0
0
0
0
0
0
0
0
0
0
0
0
0
0
0
0
0
0
0
0
0
0
0
0
0
0
0
0
0
0
0
0
0
0
1
0
0
0
0
0
0
1
1
1
0
0
0
0
0
0
0
1
1
1
1
1
1
1
1
1
1
1
1
1
1
1
1
1
1
1
1
1
1
1
1
1
1
1
1
1
1
1
1
1
1
1
1
1
1
1
1
1
1
1
1
1
1
1
1
1
1
0
0
0
1
1
0
0
0
0
0
0
0
0
0
0
0
0
0
0
0
0
0
0
0
0
0
1
1
0
0
0
1
0
1
0
1
0
0
0
0
0
0
1
0
1
0
0
0
0
0
0
1
0
0
1
1
0
0
0
1
1
1
1
0
1
1
0
0
1
1
0
1
1
1
1
1
1
1
1
1
1
1
1
0
0
1
1
1
1
1
0
1
1
0
1
1
1
1
1
1
1
1
1
1
1
1
1
1
1
1
1
1
1
1
1
1
1
1
1
1
1
1
1
1
1
1
1
1
1
1
1
1
0
0
0
0
0
0
0
0
0
0
0
0
0
0
0
0
0
1
1
1
1
1
1
1
1
1
1
1
1
1
1
1
1
1
1
1
1
1
1
1
1
1
1
1
1
1
1
1
1
1
0
0
1
1
1
0
1
0
0
1
0
1
1
0
1
1
1
1
1
0
0
1
0
1
1
1
1
1
1
1
1
1
1
1
1
1
1
1
1
0
0
1
1
1
1
1
0
0
1
1
1
1
1
1
1
1
0
0
0
0
0
0
0
1
1
1
0
0
0
0
0
0
0
1
1
1
1
1
1
1
1
1
1
0
0
0
0
0
0
0
0
0
0
0
0
1
0
0
1
1
1
1
1
1
1
1
1
1
1
1
1
1
1
1
1
1
1
1
1
1
1
1
1
1
1
1
1
1
1
1
1
1
1
1
1
1
1
1
1
1
1
1
1
1
0
1
0
1
1
1
1
1
1
1
1
0
1
1
1
0
1
1
1
1
0
1
1
1
1
1
0
1
1
1
1
1
1
1
1
1
1
1
1
1
1
1
1
1
0
0
1
1
1
1
1
1
1
1
1
1
1
1
1
0
0
0
0
0
1
1
1
0
0
1
1
1
1
1
1
1
1
1
1
1
1
1
1
1
1
1
1
1
1
1
0
0
0
0
0
0
0
0
0
0
0
0
0
0
1
1
1
1
1
1
1
1
1
1
1
1
1
1
1
1
1
1
1
1
1
1
1
1
1
1
1
1
1
1
1
1
1
1
1
1
1
1
1
0
1
1
0
1
1
1
1
1
1
1
1
1
1
1
1
1
1
1
1
1
1
1
1
1
1
1
1
1
1
1
1
1
1
1
1
1
1
1
1
1
1
1
1
1
1
1
1
1
1
1
1
1
1
1
1
1
1
1
1
1
1
1
1
1
1
1
1
1
1
1
1
1
1
1
1
1
1
1
0
0
0
0
0
0
0
0
0
1
1
1
1
1
1
1
1
1
1
1
1
1
0
0
0
0
0
0
0
0
0
0
0
0
0
0
0
0
0
0
0
0
0
0
0
0
0
0
0
0
0
0
0
0
0
0
0
0
0
0
0
0
0
0
0
0
0
0
0
0
0
0
0
0
0
0
0
0
0
0
0
0
0
0
0
0
0
0
0
0
0
0
0
0
0
0
0
0
0
0
0
0
0
0
0
0
0
0
0
0
0
0
0
0
0
0
0
0
0
0
0
0
0
0
0
0
0
0
0
0
0
0
0
0
0
0
0
0
0
0
0
0
0
0
0
0
0
0
0
0
0
0
0
0
0
0
0
0
0
0
0
0
0
0
0
0
0
0
0
0
0
0
0
0
0
0
0
0
0
0
0
0
0
0
0
0
0
0
0
0
0
0
0
0
0
0
0
0
0
0
1
1
1
0
0
0
0
0
0
0
0
0
0
0
0
0
0
0
0
0
0
0
0
0
0
0
0
0
0
0
0
1
0
0
0
0
0
0
0
0
0
0
0
0
1
0
0
0
0
0
0
0
0
0
0
0
0
0
0
0
0
0
0
0
0
0
0
0
0
0
0
0
0
        </DataArray>
        <DataArray type="Float64" Name="density" format="ascii">
999.5441312160764
998.1049802159022
1001.105617250458
997.9749240972634
1000.413914113518
1002.500128851538
999.9264252277484
1000.056046435683
1000.056046347154
998.255827481559
999.1794221231386
999.1794221548821
1000.355155886179
1000.355155815628
1000.409255935365
1000.34814212734
1000.388717563865
998.8559180668688
1000.090000988003
1001.151297082543
999.6632879832748
997.0492142263487
1000.893251031741
999.0293414545094
1001.330330359644
999.029341365355
998.1966374761364
998.4334561848017
999.1711486535587
999.1711487406799
1000.893251080737
1005.896824351013
1000.799994545738
1001.528897551951
999.1024733217282
1000.114043975088
1001.330330389765
997.5462325091967
1000.493724505386
991.0511295983281
1000.159669721325
1000.060645715307
1000.493724509978
1000.298835262933
988.8973213550231
994.4848801305319
1000
1000
1000
1000
1000
1000
995.3970543640285
1001.922471976155
1001.186357143104
1003.221983972157
1005.742409662764
1003.665799732835
1015.183243573548
988.312570632092
1006.442791482457
999.7393359982811
990.5844125740836
1002.626102455921
1002.296077653054
998.0865421979071
997.6370582653566
998.9784487994229
997.7186598174038
1000.445939628516
1000.377029800157
998.2558277872824
1000.917379549352
1000.917380040346
1002.537466432803
1001.145359834172
1004.152701833117
999.9682053636991
999.3447692210119
999.3447679744512
1002.078198889198
1002.078198258688
1001.150710070464
1001.15070980458
997.974922039893
999.3454565364486
998.1966367638656
1001.241074339344
1001.577065999468
1007.721951046139
998.2752028012997
1000.413913739748
999.8934735879185
1001.028061964808
1000
999.8934729245283
1000
986.0380254502501
1000
1000.028547092718
1000
1000
1000
1000
1000
1000
1000
1000
1004.930271088507
1015.450308281581
1000
999.7393354729707
1000
1027.802434374594
1000
1006.888622887829
1000
1000
1000
999.696068843634
1007.970740417227
989.5793435399576
1003.432586933259
1000.319644931192
1009.620232699349
1017.80066014806
1022.93270361399
1000.510483214173
1000
988.3439011754994
999.3814833227998
1005.650981972686
1000.370307183594
1000
1000
1000
1000
1000
1000
1000
1001.979515824464
999.8821981311534
991.9062342053631
989.8669108956427
998.217460324546
1003.086757037801
1000
1000
1000
1000.088508286123
1003.164672881339
1000
1000
1001.813759182025
1001.955253467638
986.0380261133091
980.8366308466018
1000
1000
1000
1000
1000
998.2752024825965
999.3927914153487
1000.799246839231
1000.241832377835
1000
1000
1000
1000.293875631273
1000
1000
1000
999.9682048799293
999.9177577439341
1002.430528260254
1000.13608068036
1008.922885980923
997.3729113117843
1000.616231430849
1001.241074501953
1015.450309097235
1004.930270342189
1003.078648980433
1001.577067593986
999.687591393911
1007.721951309155
1001.813759650431
989.8669108827842
998.5976414257907
998.5976419231209
1001.359599859652
1001.359601457297
995.8576644911317
1001.477282687947
1004.830012455881
1019.467884045857
1001.374055989132
1001.493052137116
1000
1000
1000
1000
1000
1000
1000
1000
1000
1000.143831581346
1000
1000
1000.188845217746
1000
1000
1000.527349214731
1000.400746464024
1000
1000.670520116587
1000
1000.197405704034
1000.003971214037
1000
1000
1000.100645187308
1000.244745530734
1000.224514631193
1001.806540841575
1000.119205748151
1000.128996510451
1000
1000.091629208635
1000
1000
1000
1000
1000.666767356817
1001.493052163303
1001.374055842694
1019.467884320823
1002.564289565179
1000
1000
1005.650344647017
1000.091629043317
1000
1000.128996535746
991.9062346739157
1000
1001.806541001049
1000.224514700301
1000.24474556905
1000
1000
1000.003971167199
1000.197405675028
1000
1000
1000.400746102328
1000.527349092868
1000
1000
1000.188845051192
1000
1000.14383146826
1000
1000
1000
1000
1000
1000
1000
996.6537418742716
1002.207725049685
1002.207724921063
1003.138997315186
999.936125451214
999.2617857625269
1002.564290234533
1000.266396105959
998.9035071379398
998.90350806616
996.4320827777728
1003.086756705713
998.2174615870892
1004.830012653617
999.8821991896136
999.963065317399
1000.670520420023
1000.616231298552
998.119654761818
1005.650344382207
999.9630652812144
1000.738205014062
1000
999.0723482329488
995.4055893143595
1000
989.4546335608827
997.8039924747719
1000
999.9264255190024
998.119654844323
1000
999.2359428409568
1001.183675276016
1001.183675825849
1000.545205194365
996.4320805209499
993.4520694795883
999.2849494227877
999.2849471907258
998.1418654640622
998.1418682514302
994.5911871355511
1002.867523517297
999.6051783423126
1003.311987584478
997.8050567470415
997.805056210091
995.9424379659722
1003.017525506398
998.56684051435
999.0122147450375
999.0122154152913
998.5668409551741
996.0093567044488
988.3125649862602
998.3927531509577
999.7326360631046
1013.344928335814
1013.344928261209
1004.6654593495
1003.19612397317
996.8149891072608
1001.037195040484
999.8596627159633
999.6433814373131
1005.3766294476
1005.376630366511
992.5918466326367
999.8596630380895
992.59184745189
1014.3673490608
999.8020570866454
999.8020564173494
994.673051327194
994.6730508356401
1000.445692645128
1001.533062167896
1001.533063002664
1000.818935223355
999.3573982900322
1001.285499039157
992.3679612748547
1000
1000
991.9106530963578
991.9106535607194
1000
996.5285539611923
996.528554024943
1000
1000.360601616072
998.17769989588
1000.513122530195
1000.51312252921
1005.574065620991
1005.574066135197
1000
997.29130755468
1000.911975360633
1000.799246641077
1001.098854213171
999.31347311384
999.2359430977074
1001.979516244358
1001.502375167171
1003.299425228969
1000.731369801525
1000.73136910572
999.2617870062899
998.5652048521407
1000.36140019134
1003.164673613094
1000.121742489293
999.7326360661106
1005.034252397292
1005.034252145839
995.2455291900402
995.2455297265918
1000
1011.409395725392
1000
1000
1000
1000.293875992053
991.6449397553221
999.2071119148666
999.2071115600195
1000.91376981089
999.7374579283676
1000.91376874097
999.7374578877437
1000.122810258375
1003.412378004039
1000
1003.412378158007
1000
997.7404287483191
1001.18756540438
996.9765549921715
1000.122808793102
997.740428812626
1000.850313200725
1000
1000.811207857461
1000.85031217929
1000.997342796274
999.385212298577
999.3134724137765
999.3852120076783
1001.236394892078
999.6776294736197
993.8637058624572
998.9005556675414
997.3729103464384
1001.187564606492
993.6686279085642
1000
1000.162854868856
1000.811208068722
994.1311252234349
1000.911975526085
999.8513540312248
998.1776991564524
999.6776291584905
1001.165204250315
991.5437938194372
1000
999.6875910963087
1001.165204068548
1001.116169228699
995.952001070094
1000
995.9520012553598
998.5652052008339
993.9507609027273
1005.498566039853
1001.646507941574
1002.537468735594
1000.652548466553
998.978449999873
1002.500129929292
1000.738204064833
1027.802434348748
1025.581424451382
1005.896825332597
996.3778014784086
999.5441296653165
1001.268346345155
1001.955254178521
1000
1005.029286332176
1000
1000.348141486073
1001.105617071875
999.6632872487424
1000.370307912292
999.1269093004256
999.6051788251287
997.5462318458226
1000
1000
1001.528897591956
1001.186356257185
1000
1000
1001.145359365351
999.2907658091368
1005.650982408071
1011.409395417925
988.3439018410586
1000.122808666395
995.2455298140976
995.2455303622628
1005.034251962804
1005.034251559384
1000.122809793466
1005.74241042949
1000.731369630665
1000.73137016251
1000.652547821536
1005.376629687544
1005.376630561766
1009.620231265201
1002.564291017494
1005.574066386996
1001.098854841662
1002.296077954514
991.9106534779568
1005.029287078902
989.5793449195228
1005.57406580021
1000.513121920866
1000.513121669341
999.6960660710303
996.5285533739534
996.5285533322868
1006.888623070562
991.9106531282907
999.2907653368555
991.6449405253911
1000.319643819904
1003.299426152248
1001.533062701672
1001.53306337979
997.2913072540379
1002.626103234059
1003.196124286743
1000.06064631244
1014.367348376712
996.8149891587483
992.3679603106899
1013.344927980948
992.5918475298662
992.5918481452562
996.9765537523758
988.3125722606354
999.3134728491726
999.3134735479312
997.8050558849919
1013.34492795613
1000.545206348178
999.859663676
1003.412377613284
993.9507618270015
1003.412377634322
1000.818935563955
1001.11616885375
995.9520010371216
995.3970554731994
999.3447691219939
994.4848803408166
998.0865434163326
997.6370576309884
1005.498564768431
1001.037194303135
988.3125674189857
1004.152702338831
995.9520008296053
999.8020557518508
999.8020563307439
993.4520698912791
999.0122155019707
999.0122149182769
1002.564290349995
1003.138997876219
998.1418670505909
998.1418646841564
995.9424374636232
998.5976426307278
1001.477282944217
998.5976421026155
1000.26639720096
999.9361260296464
1002.207725486039
996.6537411410437
1002.207725348562
1003.07865026698
999.3447701705272
1000
1000
1000
1000
1000.188845298098
1000
1000
1000
1000
1000
1000.400746519989
1000.527349261073
1000
1000
1000
1000
1000.003971208042
1000.197405663178
1000
1000
1000
1000
1001.80654104936
1000.22451454888
1000.244745438159
1002.86752335173
1000
1000
1000
1005.650344343271
1000.091629318286
1000
1000.128996467638
1000
1003.432587122668
1007.970739982153
1000.670520064627
1000
1000
1000
1004.830012327881
1019.467884209534
1001.374056204709
1001.493052080407
1000.666767393032
1000.67051994713
1000
1000
1000
1000
1005.650344432498
1000.091629179656
1000
1000.128996485282
1000.119205738145
1000
1001.806541107457
1000.224514631476
1000.244745478608
1000.100645147978
1000
1000
1000.003971182187
1000.197405662093
1000
1000
1000
1000.400746282551
1000.527349184838
1000
996.4320812568893
1000
1000
1000.188845222665
1000
1000
1000
1000.913769415957
1000.913768520259
996.4320793562601
1001.493052117034
1001.374055972029
1019.467884311573
1004.830012561189
1017.800659664953
1022.932703332619
1025.581424418775
1001.359600594654
998.9035086402591
998.9035077273604
1001.359599316236
990.584412734557
999.8596634035874
999.2849481915275
994.6730512767848
1006.442791341821
1000.51048551665
996.0093573256556
997.8050559268388
998.5668400675908
998.5668403912236
994.5911873272295
999.2849460716018
994.6730516864562
1015.183242313858
1000.298835129176
999.8934733900377
999.8934729562015
993.8637042262228
1000.917379291921
1000.917379911195
988.8973214014223
998.565205600858
998.5652052687935
991.0511301757549
1001.646507177975
1001.922474069309
980.8366294844285
1008.922887047786
1004.665459420304
1000.811208339175
1000.811208533663
1001.150709917553
1001.150710126624
1003.221984270237
997.7186612153386
991.5437925365013
999.8513535554119
1001.187566375062
1001.187565765247
1003.665799855933
999.3927912986211
1000.893251131361
1000.445693142734
999.6875913811018
1000.911975679272
999.1269093866889
1000
1000
1000.143831482819
1000.799246950099
1001.330330457817
1000
1000
1000.377029787218
1000
1000
1000
1000
1000
1000.028547094018
1000.143831527883
1000
1000
1000
1000
1000
1000
1000
1000
1000
1000
1000
999.3814823892102
998.177699139557
1000
1000
1000
999.3852121849183
1000
1001.151296737432
1000
999.6776289617617
1000
1000
1000
1000
1000
1000
1000.911975594828
1000
998.1776997815043
1000
1000
1000
1000
1000
1000
1001.165203859944
1000
1000
999.6875916359066
1001.165203946555
1000
1000
1000
999.3573982226648
1000.8503132375
1000.850312452911
1000.241832470039
1000
997.7404285719618
997.7404286424025
1000
1000
1001.028062197564
1000.360601645966
1000
1002.078198856838
999.2071119540128
998.9005554160324
1000.293876076561
999.3454562602109
999.20711219207
999.6433813540942
999.7326362425091
999.9630652332113
1000.293875811025
999.3852123280974
1000.61623131379
1000
1000
999.0723481726229
1000.121742393276
1002.078199284783
999.7374577042576
999.7374577123719
1000
999.6776292013353
999.9630653280385
1000
999.7326361621271
1000.616231410786
1000.493724407415
1000.493724413609
1000.114043234854
999.1024742376545
1000.799993577353
999.1711487005335
999.1711487335265
998.4334564761527
999.0293414465061
999.0293413924851
1000.89325121018
1001.330330537577
997.0492145756868
1000.090001033285
1000.409255854761
1000.355155828687
1000.355155901643
999.1794221643053
999.17942215866
1000.056046356042
1000.056046287544
998.1049806534342
1000.136080672179
1000.162854936392
1001.236395127176
1001.285499212056
1000.799246829918
1000.997342701124
1000.361400204784
1000.088508253409
1001.502375132007
1000.159668826921
989.4546340868471
997.8039912434635
1003.017526049726
995.405588293725
1000
1000
1000
1000
1000
1000
1000
1000
1000
1000
1000
1000
1000
1000
1000
1000
1000
993.9507610929799
1011.409396050626
988.3439005520239
1000.65254822072
996.6661619103264
1009.620233239009
1001.955254408508
1000.319644827703
1005.029286356434
1002.477174565016
1000.445692774854
989.5793425198901
1000.370308101038
1000.678989916541
998.1049802241224
999.6410347120022
1000.409255519975
999.6960687872942
1000.3887173366
998.8559180613004
1006.888622399222
997.0492142533629
1002.500129169175
999.5852888112349
1000.799994254017
999.290765688239
999.1024741890609
991.6449387765495
1000.114043617257
1003.164674024469
1003.299424914213
999.9264255462788
999.7393357655835
1000
1000
998.2558288024883
998.2558291476417
999.3814831300433
1000
1000.060646332483
1000
1000
1001.151296518316
1000
996.9765548912708
1000.510481703288
1000.028547094873
998.2752023380997
986.038026198109
998.3927532653014
999.9682047450679
1002.430528596672
1000
1000.377029796455
995.8576642285071
1000
998.8559179218315
990.5844118601476
1006.442792200064
1002.296077065838
1000.545204809954
1002.626102583833
997.6370591645724
1005.650981793332
998.0865424934997
1001.646507679993
1001.813759747764
999.8821994866736
980.836631300892
997.9749244762586
1001.241074711038
1003.07864923071
1000
1000
988.8973210148305
1000.298835370323
1015.183242837389
1001.813759064191
996.8679186026222
1000
1000
1001.979516326646
1005.896825094487
991.0511295252641
1001.037195419412
996.8149890419871
1005.742409711595
1008.922886163375
995.4055890957209
1025.581424509444
1000
1000
1000
1000
1000
1000
1003.01752571008
1000.738204361134
1004.06241334291
1000
1000
1000
1000
1000
1000
1027.80243433988
1002.430528464326
1001.528897622482
1002.537468448312
997.5462318668375
995.3970540969124
998.978449813015
994.4848796303135
996.8679179883212
1005.498565665813
1003.311988056683
1022.932703645426
1017.800660048756
1003.432587282241
1007.970739924351
1000
1000
1000
1000
1000
1000
1000
1000
1003.665800290205
1000
1000
996.9150652841059
996.3778030655091
1000.784367459111
989.8669109676999
1000.784367472389
1003.19612418543
989.4546336338669
1003.086756645461
997.8039924366735
1001.145359303151
993.6686282714949
999.9177568592306
1002.192958316566
1001.18635624693
1000.159669478857
999.8513532248684
1000.229986135327
997.7186598974864
1003.221984340655
1000.895006814753
999.5441299240517
1000.44594170243
1000.445939330669
1001.268345038174
998.1196547321042
998.119654671621
999.2359428437439
999.2359430211662
1004.665458679078
1001.183675494323
1001.183675833677
999.2617856432331
999.5852888339116
1004.930270300542
1015.450309489326
998.9784487886517
1002.500129574073
1000.413913614952
998.1966365317525
997.3729113099992
996.6661630945625
994.1311242533076
999.6632872947306
1007.721951436092
1001.577067717443
998.2174618499795
1000
1001.105617195598
1000
1004.062412903273
1000.413914204512
999.2617868829328
997.9749216107161
1001.268346671106
997.3729103241142
1001.922472525223
999.8821978410516
1000
1002.477175580053
996.2442808714876
998.1966376087603
1000
1000.503738715717
1005.896824454138
995.8576647955371
998.2174600320774
1000
991.9062345257291
999.6051785419162
996.3778015592593
1002.192957845462
1002.537466598208
1000
1003.086756901592
1003.311987817204
1000.503738528131
1000.895006650069
996.6661616002917
1002.47717480064
1004.062412783257
998.8215451597371
1000.503738564097
995.123480040391
995.1234802756322
995.1234802839174
995.1234804165339
1000.784367549777
998.8215453494197
998.8215452698539
996.2442801345019
1000
1000
998.3927533466513
1000.409256445745
1001.151297407573
1000.799993864001
999.1024734394121
997.0492145198849
1000.11404367894
1000.298834996968
988.8973215404785
980.8366294637416
994.4848808016259
999.2907658991858
1003.299426540854
1000
1000
1000
1000
1000
1001.268345034547
995.8576644990718
995.405588397834
1000
1025.581424301045
1001.037193673737
996.8149897182155
1000.652548597377
1004.665460030562
999.7393360165336
997.7186606098245
989.4546338000687
999.3814827675634
989.86691108825
1001.105617194942
998.392753341544
1000.319644087748
996.976553540083
1002.430528628621
1001.528897577446
1001.186356940569
1008.922886628376
995.397055474917
1000.060646165607
997.6370562233404
1000.510487965074
1022.932703217954
1017.800659636901
1003.432586741276
1007.970740465507
1000
1000
1000
1000
1000
1000
1000
1000
1000
1000
998.0865431123968
999.9682053427123
1006.442790196951