<VTKFile type="PolyData" version="1.0" byte_order="LittleEndian" header_type="UInt64">
  <PolyData>
    <Piece NumberOfPoints="2010" NumberOfVerts="2010">
      <Points>
        <DataArray type="Float64" Name="Points" NumberOfComponents="3" format="ascii">
0.0372336404975494 0.02714646355002442 0.0106863508736978
0.1095635233322313 0.03839176119619851 0.03552219494048134
0.04777751556912294 0.03608118638391881 0.08123156117183278
0.06043647667537124 0.03839176123013109 0.03552219492868448
0.1262607311691629 0.03333388468061428 0.08226444807154897
0.06555412925661583 0.03793946044149143 0.02617473641164552
0.1369782534334956 0.04222635483449343 0.04017971864772299
0.1397686924919811 0.03023130751353724 0.04600881685522901
0.1372690903891857 0.04032935989284216 0.03613464204395825
0.08902403652765568 0.03519436882349775 0.004605225582277606
0.1296706401038448 0.03273090961110599 0.03613464204286754
0.1514815086874963 0.02775134748395135 0.05485962932673998
0.02793411782820509 0.01776335450343968 0.03365554908587064
0.1422486525140327 0.01851849131367503 0.05485962932123121
0.127773645164678 0.03302174656389435 0.04017971864778224
0.1401066720973394 0.02989332791227222 0.04027604304616553
0.1338945087565906 0.01816540244379088 0.04682743491914317
0.1518345975583787 0.03610549124530766 0.04682743492370891
0.08211766334931686 0.02782681572701655 0.01027660716337669
0.07141301400851027 0.02524048534591879 0.01624081164127441
0.1517808270015181 0.01821917300637449 0.06276567015476854
0.1346671690151787 0.02020341883835951 0.05255103198810134
0.1373956485448541 0.03780364113682065 0.02656612700269621
0.01776335451154556 0.02793411783613962 0.03365554908467843
0.08155576298251782 0.02904909888804039 0.006324979941356391
0.02296231196628153 0.02296231200128987 0.02850715750815651
0.1321963588645678 0.03260435148429932 0.02656612701056724
0.04693297491595772 0.03150292536521648 0.006767313611518155
0.05160433259006727 0.03866534868882954 0.03269807814983505
0.142408499363813 0.01818791464236268 0.04134250407564222
0.04739093438238452 0.03615104155952031 0.007080543550804368
0.1518120853506287 0.02759150064639863 0.04134250408214489
0.1077511647757436 0.02240318860275104 0.04138438282852809
0.1517526702906037 0.02757133146905691 0.04794854023938419
0.0622488352186184 0.0224031886009241 0.04138438282152777
0.14242866853265 0.01824732970757144 0.047948540237799
0.1496899824642886 0.02031001754519386 0.02370768194576929
0.124807969320495 0.02019910541741467 0.04755744981329265
0.07309088197357874 0.02173259433766343 0.02050390430546227
0.08121810520431814 0.02405472199521623 0.01667468025944642
0.06042553330204346 0.03242962359456826 0.004944789094688571
0.1325373423132291 0.03203830038006441 0.002830322792072435
0.04519203068798978 0.0201991054119146 0.04755744982640669
0.137961699587246 0.0374626577374516 0.002830322746509654
0.1259268593276237 0.05622723847681037 0.08233529669826564
0.04222635483657104 0.03302174656561963 0.04017971864407562
0.1438520434145196 0.0371949168665459 0.01450901064767144
0.1420658821457199 0.0177633545048316 0.03365554907477317
0.02283397835564094 0.03190057483270235 0.09948824002358499
0.09629057912588504 0.04388973195863383 0.02605569733081033
0.09462700728282276 0.05103673696678346 0.00911444443976404
0.1522366454813296 0.02793411786107039 0.03365554906575511
0.1263752598889734 0.03468440861449767 0.04397328170855742
0.1323520670728655 0.01824224346699812 0.02426846453555468
0.1425712174746381 0.02742878203906035 0.01105741168833966
0.1473192057056441 0.02268079420797727 0.01880033508553512
0.1618131578947369 0.02626052631578947 0.04295769230769231
0.1618131578947369 0.01722368421052631 0.04295769230769231
0.1618131578947369 0.008186842105263157 0.04295769230769231
0.07235508486229103 0.02264918543693616 0.0380278535166657
0.1438046565025083 0.02619534397911796 0.0131871426512488
0.09764491514459769 0.02264918544589974 0.03802785350313455
0.1618131578947369 0.03529736842105263 0.03419615384615385
0.03953778943525227 0.03117036870521872 0.0912480517856695
0.1234438981443889 0.03861751278714536 0.09184039224294641
0.0465561018420464 0.03861751277915782 0.09184039224572382
0.1618131578947369 0.02626052631578947 0.03419615384615385
0.08891748093718117 0.04369312042850974 0.02398396653423296
0.02020341885258611 0.03533283098035691 0.05255103199051839
0.06591769193038473 0.03243794888908223 0.001894314735135194
0.05510675503694187 0.02755677608891804 0.01180640415074975
0.03533283098670181 0.02020341884497177 0.05255103198100388
0.09309759338255587 0.03155932787735238 0.003132664572396667
0.08106145702328514 0.01969325387636244 0.02235211875678791
0.07234123542494555 0.01881004725284306 0.0262067895323663
0.1618131578947369 0.01722368421052631 0.03419615384615385
0.1111144178803065 0.03790501839409167 0.03186883870959881
0.1618131578947369 0.008186842105263157 0.03419615384615385
0.1618131578947369 0.03529736842105263 0.02543461538461539
0.05888558211862036 0.03790501841339796 0.03186883868026847
0.1618131578947369 0.02626052631578947 0.02543461538461539
0.1618131578947369 0.01722368421052631 0.02543461538461539
0.0513308314904556 0.03912928959454123 0.08242198057716865
0.04650661825836847 0.01919495604302043 0.02264778131065393
0.07144473684210526 0.008186842105263157 0.01667307692307693
0.1618131578947369 0.008186842105263157 0.02543461538461539
0.1224539205179969 0.04152290182456925 0.04618438101750057
0.03023130750838099 0.03023130751640624 0.04600881685030073
0.06240789473684209 0.008186842105263157 0.01667307692307693
0.05337105263157894 0.008186842105263157 0.01667307692307693
0.04433421052631578 0.008186842105263157 0.01667307692307693
0.03529736842105263 0.008186842105263157 0.01667307692307693
0.1123762526418902 0.0429819746726095 0.01933934255775321
0.08053083642879039 0.02305350737184428 0.03689269470079147
0.1618131578947369 0.03529736842105263 0.01667307692307693
0.1618131578947369 0.02626052631578947 0.01667307692307693
0.1618131578947369 0.01722368421052631 0.01667307692307693
0.08946916356973704 0.02305350736323682 0.03689269468266365
0.04373926885154063 0.03333388469338894 0.08226444805894551
0.1049539388959245 0.06504606110209266 0.07265038771237324
0.1314543677552264 0.02830786368320001 0.07566912875870824
0.1618131578947369 0.008186842105263157 0.01667307692307693
0.1618131578947369 0.03529736842105263 0.007911538461538463
0.0216591629721555 0.03182453942672542 0.09590185554634671
0.1618131578947369 0.02626052631578947 0.007911538461538463
0.03182453943519674 0.02165916297838442 0.09590185552686609
0.1618131578947369 0.01722368421052631 0.007911538461538463
0.1618131578947369 0.008186842105263157 0.007911538461538463
0.1527763157894737 0.008186842105263157 0.01667307692307693
0.1013476467527957 0.03688467864463051 0.06883576511778275
0.08142152930797593 0.03396818928617599 0.06352250552211221
0.1527763157894737 0.008186842105263157 0.02543461538461539
0.1527763157894737 0.008186842105263157 0.03419615384615385
0.03529736842105263 0.008186842105263157 0.02543461538461539
0.04433421052631578 0.008186842105263157 0.02543461538461539
0.08819297597094002 0.0400709967930299 0.06588016937399581
0.1527763157894737 0.008186842105263157 0.04295769230769231
0.1162563438424889 0.01961123568642443 0.04299565051863068
0.05337105263157894 0.008186842105263157 0.02543461538461539
0.06240789473684209 0.008186842105263157 0.02543461538461539
0.05374365615578174 0.01961123568703212 0.0429956505232579
0.1527763157894737 0.008186842105263157 0.05171923076923078
0.08857847069245846 0.0339681892585979 0.0635225055106476
0.09566755382928931 0.03284200753427975 0.06451370827161193
0.0966382122419064 0.03750229883516418 0.02259655014959667
0.07336178774725241 0.03750229886071038 0.02259655013542349
0.1527763157894737 0.008186842105263157 0.06048076923076924
0.07543175381312606 0.03725177494237818 0.06670474671380858
0.04271740830735875 0.03839174850887442 0.007200957711079453
0.08900868843521664 0.02630359351629358 0.02436247200206887
0.03577980410530463 0.02741484627595805 0.09710360818948821
0.1527763157894737 0.008186842105263157 0.0692423076923077
0.1527763157894737 0.008186842105263157 0.07800384615384616
0.1347026315789474 0.008186842105263157 0.03419615384615385
0.1266933942942431 0.02811875125108817 0.02078920972229317
0.1437394736842105 0.008186842105263157 0.03419615384615385
0.04821948888915026 0.0379771708524986 0.02997786541570327
0.1483100135454952 0.02776527895953885 0.01476015278181255
0.1157377107279117 0.02284808065923721 0.02073347250657289
0.04032935990251127 0.03273090961580457 0.03613464203182197
0.03273090961828209 0.04032935990185253 0.03613464202485437
0.1515202761669874 0.01847972382998296 0.04577286561170546
0.1426128372148528 0.02971385073935715 0.007577024655377095
0.09610701522496529 0.03040566782587454 0.06155946927173889
0.1517651592966465 0.0182348407077383 0.03808805573308903
0.1298509146074493 0.03082336715294701 0.08251662763286735
0.07389298477592193 0.03040566782215888 0.06155946926305961
0.0969091180381265 0.02173259434903459 0.02050390428969636
0.1523312129275539 0.0176687870905282 0.02787359047318113
0.0887467731289818 0.03019206809525748 0.0592429032008398
0.08878189479844227 0.0240547219893748 0.01667468026333458
0.1480533681269819 0.02194663181756584 0.01506872180238204
0.1401998875152728 0.02980011254489213 0.003752293721273284
0.1517577565247096 0.03764793293540683 0.02426846452586947
0.08125322687726057 0.03019206809584866 0.05924290319700701
0.106387302964174 0.04746271500593299 0.01535055718123123
0.1347026315789474 0.008186842105263157 0.04295769230769231
0.1437394736842105 0.008186842105263157 0.04295769230769231
0.07320233205661308 0.04084092759836379 0.04930429818948132
0.09026766829440455 0.04239090368212448 0.04871229121743601
0.08648387925226381 0.0434240208206065 0.04246272089911928
0.1096777024180721 0.06719081149408594 0.07847873332000545
0.09859311627374671 0.04500769695138129 0.01613249183009316
[...]
      <PointData>
        <DataArray type="UInt64" Name="type" format="ascii">
1
1
1
1
1
1
1
1
1
1
1
1
1
1
1
1
1
1
1
1
1
1
1
1
1
1
1
1
1
1
1
1
1
1
1
1
1
1
1
1
1
1
1
1
1
1
1
1
1
1
1
1
1
1
1
1
0
0
0
1
1
1
0
1
1
1
0
1
1
1
1
1
1
1
1
0
1
0
0
1
0
0
1
1
0
0
1
1
0
0
0
0
1
1
0
0
0
1
1
1
1
0
0
1
0
1
0
0
0
1
1
0
0
0
0
1
0
1
0
0
1
0
1
1
1
1
0
1
1
1
1
0
0
0
1
0
1
1
1
1
1
1
1
1
1
1
1
1
1
1
1
1
1
1
1
1
0
0
1
1
1
1
1
0
0
0
1
1
0
1
0
0
0
0
1
1
1
0
1
0
1
1
1
1
1
1
1
1
1
0
1
0
0
0
1
1
1
0
1
1
1
1
0
0
0
1
1
1
0
1
1
1
1
0
1
1
1
0
0
0
0
0
1
0
1
0
1
1
1
1
0
0
1
1
1
1
1
1
1
1
1
1
1
1
0
1
0
0
1
0
0
0
0
1
0
0
1
0
1
1
1
0
1
0
0
0
0
0
0
1
1
0
0
1
0
0
0
0
0
0
1
1
0
1
1
0
1
1
1
0
1
1
1
1
1
1
1
1
0
1
1
1
1
1
0
0
0
0
0
0
0
1
1
1
1
1
1
1
1
1
1
1
1
1
1
1
1
1
1
1
1
1
1
1
1
0
0
1
0
0
0
1
1
1
1
1
0
0
1
1
1
0
0
0
1
1
1
1
1
1
0
0
0
0
0
1
1
1
0
0
0
0
0
1
1
0
0
0
0
0
1
1
1
1
0
0
0
0
0
1
1
0
0
0
0
0
1
1
0
0
0
0
0
1
1
1
1
1
1
1
1
1
1
1
1
1
0
0
0
0
0
0
1
1
1
1
1
1
0
0
0
0
1
1
0
0
0
0
1
1
1
1
0
0
1
1
1
1
1
1
1
1
0
0
0
0
1
1
1
1
1
1
1
1
1
1
1
1
1
1
0
0
0
0
0
0
1
1
1
1
1
1
1
1
1
1
1
1
1
1
1
1
1
1
1
1
1
1
1
0
1
1
1
0
0
1
1
1
0
1
1
1
1
1
1
1
1
0
1
1
0
1
1
0
1
0
0
0
0
0
1
1
0
1
1
1
0
0
0
0
1
1
0
0
0
1
1
0
1
1
1
1
0
1
1
1
1
0
0
1
1
1
1
1
0
0
1
1
1
1
1
1
1
1
1
1
0
0
0
0
0
0
1
0
0
1
0
0
0
0
1
0
0
0
0
0
0
0
0
0
0
0
0
0
0
0
1
0
1
0
0
0
0
0
0
0
0
0
0
0
0
0
1
0
0
1
0
0
0
0
1
0
1
0
0
1
1
1
1
1
1
1
0
1
1
1
1
1
1
1
1
1
1
1
1
1
1
1
1
1
1
1
1
1
1
1
1
1
1
0
0
1
0
1
1
1
1
1
0
1
0
1
0
1
1
0
1
0
1
0
1
0
0
1
0
0
1
1
0
0
0
1
1
1
1
1
1
0
1
1
1
1
0
1
1
0
1
1
1
1
1
1
1
1
1
1
1
1
1
1
1
1
1
1
1
1
1
1
1
1
1
1
1
1
1
1
1
1
1
1
1
1
1
1
1
1
1
1
1
1
1
1
1
1
1
1
1
1
1
1
1
1
1
1
1
1
1
1
1
1
1
1
1
1
1
1
1
1
1
1
1
1
1
1
1
1
1
1
1
1
1
1
1
1
1
1
1
1
1
1
1
1
1
1
1
1
1
1
1
1
1
1
1
1
1
1
1
1
1
1
1
1
1
1
1
1
1
1
1
1
1
1
1
1
0
0
1
0
0
1
1
0
0
0
0
0
0
0
0
0
0
0
0
0
0
0
1
1
1
1
1
1
1
0
0
0
1
0
0
0
1
0
0
0
1
1
1
1
1
0
0
0
1
1
1
1
1
1
1
1
1
1
1
1
1
1
1
1
1
1
1
1
0
0
0
0
0
1
1
1
1
1
1
1
1
1
1
1
1
1
0
0
0
0
0
0
0
0
0
1
1
1
1
1
0
0
0
0
0
0
0
0
0
1
1
1
1
1
1
1
1
1
1
1
1
1
1
1
1
1
1
1
1
1
1
1
1
1
1
1
1
1
1
1
1
1
1
1
1
1
1
1
1
1
1
1
1
1
1
1
1
1
1
1
1
1
1
1
1
1
1
1
1
1
1
1
1
1
1
1
1
1
1
1
1
1
1
1
1
1
1
1
1
1
1
1
1
1
1
1
1
1
1
1
1
1
1
1
1
1
1
1
1
1
1
1
1
1
1
1
1
1
1
1
1
1
1
1
1
1
1
1
1
1
1
1
1
1
1
1
1
1
1
1
0
0
0
1
1
1
1
1
1
1
1
1
1
1
1
1
1
1
1
1
1
1
1
1
0
0
0
0
0
0
0
1
1
0
0
1
1
1
1
1
1
1
1
1
1
1
1
1
1
1
1
1
1
1
1
1
1
1
1
1
1
1
1
1
1
1
1
1
1
1
1
1
1
1
1
1
1
1
1
1
1
1
1
1
1
1
1
1
1
1
1
1
1
1
1
1
1
1
1
1
1
1
1
1
1
1
1
1
1
1
1
1
1
1
1
1
1
1
1
1
1
1
1
1
1
1
1
1
1
1
1
1
1
1
1
1
1
1
1
1
1
1
1
1
1
1
1
1
1
1
1
1
1
1
1
1
1
1
1
1
1
1
1
1
1
1
1
1
1
1
1
1
1
1
1
1
1
1
1
1
1
1
1
1
1
1
1
1
1
1
1
1
1
1
1
1
1
1
1
1
1
1
1
1
1
1
1
1
1
1
1
1
1
1
1
1
1
1
1
1
1
1
1
0
0
0
1
0
0
0
1
1
1
1
1
1
1
0
0
0
0
0
0
0
0
0
0
0
0
0
0
0
0
0
0
0
0
0
1
1
1
1
1
1
1
1
1
1
1
1
1
1
1
1
1
1
1
1
1
1
1
1
1
1
1
1
1
1
1
1
1
1
1
1
1
1
1
1
1
0
0
0
0
0
0
0
0
0
1
1
1
1
1
1
1
1
1
1
1
1
1
1
1
1
1
1
1
1
1
1
1
1
1
1
1
1
1
1
1
1
1
1
1
1
1
1
1
1
1
1
1
1
1
1
1
1
1
1
1
1
1
1
1
1
1
1
1
1
1
1
1
1
1
1
1
1
1
1
1
1
1
1
1
1
1
1
1
1
1
1
1
1
1
1
1
1
1
1
1
1
1
1
1
1
1
1
1
1
1
1
1
1
1
1
1
1
1
1
1
1
1
1
1
0
0
0
0
0
0
1
1
1
1
0
0
0
0
0
0
0
1
1
1
0
0
1
1
1
1
1
1
1
1
1
1
1
1
1
1
1
1
1
1
1
1
1
1
1
1
1
1
1
1
1
1
1
1
1
1
1
1
1
1
1
1
1
0
0
0
0
0
0
0
0
0
0
0
0
0
0
0
0
0
0
1
1
1
1
1
1
1
1
1
1
1
1
1
1
1
1
1
1
1
1
1
1
1
1
1
1
1
1
1
1
1
1
1
1
1
1
1
1
1
1
1
1
1
1
1
1
1
1
1
1
1
1
1
1
1
1
1
1
1
1
1
1
1
1
1
1
1
1
1
1
1
1
1
1
1
1
1
1
1
1
1
1
1
1
1
1
1
1
1
1
1
1
1
1
1
1
0
1
1
1
1
1
1
1
1
1
1
1
1
1
0
1
1
1
1
1
1
1
1
1
1
1
1
1
1
1
1
1
1
0
0
1
0
1
0
0
0
0
0
0
0
0
0
0
0
0
0
0
0
1
0
0
0
0
0
1
0
0
0
0
0
0
0
0
0
0
0
0
0
0
0
0
0
0
0
0
0
0
0
0
0
0
0
0
0
0
0
0
0
0
0
0
0
0
0
0
0
0
0
0
0
0
0
0
0
0
0
0
0
0
0
0
0
0
0
0
1
0
0
0
0
0
1
0
0
0
0
0
0
0
0
0
0
0
0
0
0
0
0
0
0
0
0
0
0
1
1
0
0
0
0
0
0
0
0
0
0
0
0
0
0
0
0
0
0
0
0
0
0
1
0
0
0
0
0
0
0
0
1
0
0
0
0
0
0
0
0
0
0
1
0
0
0
0
0
1
0
0
0
0
0
0
1
1
1
0
0
0
0
0
0
0
0
0
0
0
0
0
0
0
0
0
0
0
0
0
1
0
1
1
1
0
0
0
0
0
0
1
0
1
1
1
0
0
0
0
0
0
0
1
0
0
0
0
1
1
1
1
1
1
1
0
1
1
0
1
1
1
1
1
0
0
1
0
0
0
1
1
1
0
0
1
0
1
1
1
0
1
0
1
1
0
1
0
0
1
1
1
1
0
0
0
0
0
0
0
0
0
0
0
1
0
0
0
1
0
0
0
0
0
1
0
        </DataArray>
        <DataArray type="Float64" Name="density" format="ascii">
997.457414296341
998.6710705327439
999.1681461872591
998.6710705282744
998.7012955513236
1001.115114184645
999.3587804270062
997.3485301052821
1001.680213459299
989.2864345610567
1001.680213539768
1001.28842642881
1001.407498597858
1001.288426411439
999.3587805062344
996.4710042638706
1000.29007961261
1000.290079636614
998.0938595602153
1000.938732604012
1000.511360359338
1002.275302772787
1000.006816484662
1001.40749853521
1005.459215149405
1011.901332424124
1000.006816490301
1003.52772151045
997.4548229151751
1001.014348785973
1000.914813956899
1001.014348749855
1000.63490253189
1002.814163328223
1000.63490245034
1002.814163318438
981.6498591682843
998.8798920755353
998.4118879614587
1003.350671684934
998.0419924379995
1001.562756370795
998.8798921414265
1001.562756339518
1000.541346400755
999.3587804345937
994.9073188977329
1001.407498649681
1000.154764785453
1008.689162773525
999.0864167057174
1001.407498655926
1001.071262800014
996.9420539811293
1003.025365643319
998.8317677596577
1000.565941605741
1000
1000
999.6849388540629
1003.399718654297
999.6849388491235
1000.505040800067
999.5557892153709
1000.19402369594
1000.194023762844
1000.059952314301
1003.209854144795
1002.275302889243
999.8701656688208
1003.453268711806
1002.275302863711
998.4877467923462
986.778575405892
994.5009311113583
1001.246667049296
998.0359464728732
1001.49483316252
1000
998.0359464110667
1000
1002.680755482745
1001.660981834156
994.2587583874365
1003.09199098168
1002.91668191096
1000.700259558427
997.3485300783573
1001.850849033882
1004.048760615423
1002.528510838083
1001.205433601525
991.4596902737703
1000.491952885447
1001.205433614867
1000.89787816179
1001.904727822059
1000.491952805688
998.7012955866004
998.0894678425771
998.9343343871908
1001.398457769629
1023.476499277441
998.2384170944158
1006.057603202368
998.2384170982855
1003.382658746584
1000.705644161569
1001.904727743376
1000.744642508704
1000.721680320986
1002.68075545603
1001.246667073323
1000
1000
1000.8653189432
1000
999.102352630863
1000
1001.154915444994
999.1023526617531
1000
1000.721680268138
998.0165866443832
993.4911819811197
993.4911820393055
1000.20293523072
1001.645836469808
995.2023864276002
1008.776557601242
999.6464836261553
1002.321530208292
1000
1000.505040854334
1004.741016361228
1000.059952356025
1002.460604781277
998.9837556973647
993.2660351983156
1001.680213458035
1001.680213484582
1001.199187960888
1002.377929323645
999.2869659032152
1001.002035689024
999.9124555659952
999.2869658224619
998.4118878543873
995.9225462733876
1000.571855757806
1003.350671663024
992.8178145534283
997.9342438111541
996.9420541044246
1000.571855826144
1006.139661757317
1002.348592672529
1000.565941663652
995.6799804294972
1002.173510009268
1001.219432631085
999.3660120123092
1009.697786009322
1000
1000
1000
1000.881952171385
1001.660981925779
1000
1000.698979731293
1000
1000
1000
1000
992.4460754215334
1007.57407130218
998.0165866557909
1023.476499187103
1001.288426420121
1006.057603120628
998.9837556433027
1001.28842641584
1000.302103562363
1000.302103432327
996.9420540256335
996.9420540974362
1002.377929357866
997.8214524067769
997.8214523612664
1003.923043316738
999.6331853670881
1000
1001.205433576042
1000
999.3970921754681
1002.810014333534
1002.810014379772
1000.89787807949
999.8113944106763
993.6521414288208
993.8578652798049
998.869557172345
1000
1000
1000
1000.914814121167
1000.698979953131
1000.489479409148
1000
996.743965877697
1003.217995175154
1017.582642007755
986.7785752921395
1000
999.9072967267654
996.7439659013639
1005.174146210491
1000
1000
1000
1000
1000
999.8113944787315
1000
1010.010042291945
1000
999.1827784590813
1008.801259253899
981.2033006960056
994.5009309875675
1000
1000
999.1827785218877
1001.078842138295
997.8275435177948
1002.017558027193
1002.017558037997
999.5557892566985
1000.044632106115
997.4574143541008
1002.612302074088
1002.612302069531
1000.370561560798
997.4574144301145
1002.348592640524
1000.370561569246
1000
1000
1003.274492930866
1000
1003.168687805329
1020.222790653142
1000
1003.274492792195
1000
1003.491595527988
1001.722440101408
1000.198564657428
1003.527721445818
1000.897043472497
1000.579671644123
1000.20293524953
995.0773951221912
1000
1000
1000
1000
1003.701733491373
1002.958830734676
1001.002035869004
1003.025696815767
1000
1000
998.0517432263365
1000
1000
1000
1000
1000
1002.348592688046
989.2864344893991
999.6216409812948
1017.636165264268
981.6498594429904
1000.579671771575
1000
994.907319180409
994.90731915768
1001.131330758565
1001.858635617466
1002.450193168709
997.873625048359
996.4710041570777
1008.668013933799
1008.668013805316
984.3479880324935
1001.755828207679
1001.755828237956
1002.321530218725
1000.178144361049
1000.178144358648
1000.511360318687
1000.290079612613
1000.290079635859
1000
1000
1000.88137680586
1000
1000
1000
1003.382658713861
989.0367245824715
989.0367245743465
1000.021321294215
998.8537640424098
1000.382186272296
1004.69165464277
1000.021321446543
999.4214548651271
994.9073188235124
999.2461471659819
1011.901332153148
995.6799803600859
1001.0303779088
999.2181169429247
999.8219809242628
1000.154764728782
999.8219806938131
1004.691654719648
997.8200545046667
1001.03037777495
1001.030377807063
998.0419923136631
1005.710064926593
995.2023862501928
1000
1000
996.9043525442721
1001.154915420013
1003.923043278006
1003.168687779348
995.2023862336415
1000.919308468766
999.168146195624
1000.919308314371
1002.275302826883
1002.528510810466
1004.048760633814
998.6782674835214
998.6782674651764
1002.257794997046
1001.850849015901
1003.091990922171
1003.491595452609
1017.582642010636
999.7912449238602
1003.427684724941
998.9198908512129
1000.006816288453
1000.229744313758
1008.554812977691
1018.571858619046
1019.660365239346
1017.636165256312
1020.222790673515
1000.229744296757
995.2662092490142
997.6501966180687
1000
1000
1000
1000
1000
997.650196630068
1005.710064792467
1000
1000
1000
1000
1000
994.2587584265233
999.7204791168962
999.1827784447585
999.1827783358381
1000
1000
1000
1000
1000
1000.919308592397
999.7204790816152
1000
1000
1000
1000
1000
996.9043523738029
1000.055851036983
1000
1000
1000
1000
1000
1000.919308281276
1001.014348875295
1001.309502244823
1003.45326878522
999.8701657313378
1001.014348806508
1000.055850999311
1002.079051949981
1001.199188069765
1002.07905196197
1000.006816247746
1000.230988531787
993.0128894883499
1000
1000
1000
1000
1000
1002.321530211635
999.7912449274402
999.2990448805339
1000.8523060102
999.2181169107708
999.8113943783841
999.8113943972387
1001.858635632803
1002.321530201074
1000
1000
1000.852306003949
999.8621646220126
1019.660365251292
1018.571858609886
1008.554812907247
1023.476499117134
1001.098220665114
1000.229744230841
999.1997127914707
998.6223529467103
1000
1000
1001.392263116662
1000.986203173478
1001.3095022186
998.3688793495086
1000.679369878306
1000.055851062375
997.6501965955192
997.8200544332682
1000.8813768201
1000
1000
1000
998.7349891538008
1000.382186332566
1002.510629031748
1000.16248558251
998.0165867090394
1000.986203166279
1001.030377854566
1002.814163376944
1002.814163397691
999.762740596174
1002.299753150908
998.3688793670674
993.6521419442569
998.8695570821136
1000
1000
1000
1000
1000
1000
1005.174146342752
1004.7410161681
993.2660351065027
999.9072967772815
1010.010042174974
981.2033006995819
1008.801259162269
998.614421917772
986.4741976897938
998.0768833346774
1000.032557192731
998.8537641377425
1001.3922628488
1002.812471444135
997.4548229493508
1001.115114207594
999.3466859771855
1001.722440101246
1000.069814811136
1002.494470277768
1002.494470202337
1002.299753140452
998.0517432604548
1000
995.0773952536398
992.8178144985694
1005.459215210147
1000
1001.904727707501
1000.021321037248
1000.021321275811
997.4574142570561
1000
1002.450193200053
986.4741977468428
997.9342437282827
998.0768834011018
1000.938732561449
998.6144219007689
998.0938595426102
1000.459690648592
1000
992.4460754045685
998.9837555580642
1002.680755287062
998.9837555061919
995.922546137925
1001.246667149484
993.0128895293245
1000
1000.202935239755
1000.897878248988
1000
1000
1000.044632072276
1000.069814537187
1000.565941722734
993.8578650707084
995.7268717808956
998.4877467494822
1000
1003.701733511135
1000.505040856187
1002.958830600261
1002.537865107142
999.4214548082346
1000
1000
1000
1002.537865105801
999.8219811462865
1000.059952384419
999.8219809620313
1001.821077942896
1003.025365702208
1003.399718730436
1000
995.2662091390193
1000.492775395263
1000.492775450972
1002.460604679018
1006.057603272967
1003.382658946204
1003.025696823267
998.8317675877037
1001.562756397567
1001.56275627521
1000.679369961183
1000.139312638969
1000
1001.703814473434
1002.812471472763
992.113670999444
1000.77414154693
1002.377929418248
995.3220663580444
1000.734682263432
1000.744642447513
1003.708727554208
1002.510629024984
1000
1000
1000
1000
1000.202935237732
1000.198564653961
1004.196641701212
1000
1000
1000.819148130321
1000
1000
1000
1000
1003.586177170229
1000
1000
1000
1002.348592580657
1000.565941631315
1000
1000
1000
1000
1000
1000
1000.50504075398
1000.059952342961
1001.246667103628
1001.494833168316
1001.098220626132
1000
1000.162485507053
1000
1000
1000
1002.680755330746
1002.916681831282
1000
1000
1000
1000
1001.205433511847
1000.897878292267
1001.904727798646
1001.398457720096
1000.865318960207
1000
1000
1002.25779503072
1023.476499262912
1006.057603383767
1003.382658953502
1000.705644212749
1008.776557532556
1000
1002.377929344934
1000
1000
999.7912449072244
1001.703814455489
998.0363389184106
1000.055851041396
1002.079051997407
1002.079051978481
999.1277762269453
1000
1000.700259591143
999.6216409736556
997.8736249683726
1000.734682271392
1000.459690568021
1001.078842210858
998.6782674056494
995.0229953764034
999.1277763015718
998.036338934697
1001.645836422619
998.678267413364
999.6953397009408
1000.229744284099
1000.8523060209
1000.230988518745
999.6464837117882
999.1837964482235
997.6501965759278
999.9124555716519
999.7912449569005
1001.432215764312
999.7204790810758
999.7204790994874
998.9198908648392
999.9124555921137
1000
1000
1000.233426507537
1000
1000.032557294445
1001.071262798236
1003.586177181726
1003.427684765837
1000.570909686076
1000
999.1837964340788
1000
1000.570909697858
1000
992.1136710960147
999.3466860567813
1000
998.9343344470955
1000
999.76274060329
1000
1000.881952219383
1000
1000
1001.112922342033
1000
1000
997.8275434184028
1001.078842178481
1000
1000
1000.13931263911
1000.774141571305
999.2990448770057
1000.85230607421
1003.708727570772
1004.19664169544
999.2547260504419
1000
1001.112922311692
1001.131330833479
998.9343343817485
999.405771943928
1000
999.4057719753512
999.2547260450983
1000
1001.414545352553
997.7769295890394
1001.114014472361
1000.693665602595
1000.865318945197
995.7268717805637
999.1277763033131
1000.721680246857
1001.014087468237
1000.669308391617
998.6223530213633
997.8736251022804
995.0229953508971
1004.792730461835
984.3479880638539
999.7627406199832
999.7701320235561
1000.370561600628
1000.744642497184
1001.167038346209
998.0165867187396
1001.821078046803
999.7701320492635
1003.217995137533
993.8578654602686
997.7225691280603
999.1837964796699
999.28696578893
998.0363389492487
995.6799804012977
1002.173510080738
999.355221284277
1003.586177038643
1000.777499984974
999.6028513188056
999.044054014993
997.821452321921
999.2176805178403
1000.774141616563
1006.302562414516
997.7236425422645
1000.489479340076
1002.537865075476
1001.703814528756
1002.612302058515
1000.819148182372
1004.943484131627
1000.819148147235
1001.219432614903
1000.700259574449
1000.79576879501
1003.515892505349
997.2714083364343
1000.359007127373
1002.29975315161
999.5578442094951
1003.708727597104
1003.705271032655
1004.19664175499
1002.494470210933
1000.928939595851
1001.167038379832
1000.032557246473
1001.219432655577
1000.865318874946
992.1136709913727
1002.812471473484
1000.679369955315
998.3688794044652
1000.663298641856
1000.999359733282
1000.57185583473
1001.392262911137
1001.071262758953
997.8200543990334
1000.162485525545
1000.459690589534
1000.986203201796
1002.810014349924
997.9461250075725
998.8537641427956
1003.540168863188
1000.069814840411
995.3220663389769
1000.571855714586
999.3466860113473
1001.098220679227
1002.810014344253
999.6216408913535
1003.217995194268
1000.734682292604
1000.370561611595
1001.645836486372
989.0367245647972
989.0367245476597
997.1014903422066
1004.691654704849
1004.691654541321
999.1277762621496
1000.721680224467
995.0229953742348
1001.821077980466
984.3479879803674
1000.669308392504
1000.489479474297
1002.173510062888
997.9461250537158
1001.014087489049
999.5634686511711
999.0864167537701
993.8578652756379
993.6521414665327
993.2660351888434
1004.741016390076
991.4596902455675
999.9072966986063
1000.914814251257
1005.174146296068
994.5009310868395
1000.698979901753
1008.801259191992
1010.010042244378
981.2033006727903
998.4118880296612
1006.139661760905
1009.697786075563
998.8695571842819
1017.582641692427
1000
1000
1000.044632248869
1000
1000
1003.527721475162
998.6710705531626
1000
1000
1000
1000
1000
1000
1000
1000
1000
1000
1000
1000
1000
1000
1000
998.0419924286289
998.9343343750988
995.322066283339
1003.453268732781
999.5578442758654
1001.309502279206
994.25875846681
1008.554812999916
1018.571858584481
1019.660365261841
1001.645836403717
1002.528510863687
1004.048760655314
1001.850849017539
998.6223529872107
1000
1000
1001.154915386671
997.6735719261321
997.454822975266
999.1860143712737
1000.634902489135
998.8798921197675
1002.958830624469
1003.701733415048
1000
999.199712828469
999.1997129241093
1008.689162883426
999.086416734839
1003.209854070037
1003.209854279633
995.0773951654735
999.8701657350106
1002.45019313653
998.6144218500133
999.6849387806876
998.0359465887734
986.4741976834828
1000.491952888943
998.0768834322334
1000.491952771987
1003.025696883376
1000.938732600244
999.4543332721939
998.0517434627213
1000
1003.923043348876
1003.091991007418
1017.636165221886
1000
999.5634686077564
999.1023526538785
995.2662093497538
1000.492775403142
996.7439658424636
1000.758370293129
1000.758370266181
1001.115114255112
989.2864342868593
998.4877469675603
986.7785754863984
1003.350671649999
1005.459215135427
1000
1000
1000
1000
1000
1000
1003.168687820769
1003.491595461228
1020.222790699796
998.0938594850552
993.491182075694
1007.574071287597
989.2864343618078
998.4877465842092
1000
1000
1000
1000
1000
1000
1003.168687827409
1003.491595465803
1020.222790579452
1005.459215188784
998.0938595273163
1003.350671728286
986.7785754698152
1007.57407136691
1008.776557541293
1008.776557461868
1000.17814443522
1000.178144421791
1001.755828213549
1008.668013773611
1000.579671757275
1000.579671685489
1002.460604668026
998.8159491204308
1003.274492791791
1002.017558013995
1004.670870498561
1000.302103478649
992.4460754855836
1000.759403190219
1000.663298665332
990.748625614208
997.6735720068773
1003.935833344497
999.1860144712937
1000.508580510449
1002.117465566794
1002.117465550196
999.7490820228646
999.7490819298348
999.4543332842468
997.1053614412635
998.815949230307
1000.759403205256
1003.935833403729
1004.670870535433
999.2542185337809
997.7452731062267
1000.92893961748
1013.166740412009
997.1053613701129
999.6028513432544
1007.591322637959
1000.777499916727
1003.540168809626
1001.365626778437
997.1014903327397
1001.365626777313
1003.705271060717
1003.213300825152
997.2714083416968
1000.359007160531
1000.795768797266
1001.114014468063
997.7236426143825
999.2176805252706
998.0559954314195
999.3552212929934
997.7225691482585
998.3054741425167
996.9772215336782
1006.954062281381
1000.999359695434
997.5409765367931
997.776929583119
1003.515892506947
1004.792730438208
1001.41454537658
1000.693665579168
1004.943484092793
997.7452731210202
999.0440539883323
997.1014903548618
997.8275434369504