<VTKFile type="PolyData" version="1.0" byte_order="LittleEndian" header_type="UInt64">
  <PolyData>
    <Piece NumberOfPoints="2377" NumberOfVerts="2377">
      <Points>
        <DataArray type="Float64" Name="Points" NumberOfComponents="3" format="ascii">
0.03676711827045841 0.01692554492833653 0.02518594020628978
0.03504500157196131 0.02383135654847548 0.01708460827475822
0.112539753428773 0.03653526171176356 0.06712369307054547
0.04541562806579056 0.03301353610788239 0.1156723281945875
0.05746024656976334 0.03653526171392483 0.0671236930690028
0.08922628313433972 0.04944698331673952 0.01029990033170606
0.080773716868674 0.04944698331606213 0.01029990033518877
0.07479204046718289 0.04948626599304463 0.01113488811383559
0.0365352617119331 0.05746024657116603 0.06712369306698435
0.06487922562672217 0.0327970924104485 0.06028384810731991
0.1094743507531799 0.04892231037157718 0.0637620751197993
0.07558301424249116 0.05131303283793689 0.0003282577308081061
0.06588363382044232 0.051715351046197 0.003734611298787683
0.1125825526369269 0.04170135566864508 0.04351842582675484
0.06052564924704735 0.0489223103752035 0.06376207511738537
0.0891317799294032 0.02854263352098258 0.03892272849202977
0.04057839265448944 0.04893111815500714 0.02538852297929834
0.04893111815936815 0.04057839265453553 0.02538852297334454
0.04892231037211654 0.06052564924616915 0.06376207511838033
0.1105000635365444 0.04909116873514594 0.03812971357992157
0.05975738960147464 0.05975738960948643 0.01569917866710997
0.02710188305117308 0.01794140866181158 0.04889277156906365
0.08094132017802244 0.04126957149562329 0.03677446406284335
0.08905867982353664 0.04126957149390954 0.03677446406642057
0.0955252338185269 0.06338874903574983 0.02882613714417432
0.07447476618509838 0.06338874904078702 0.02882613714747574
0.04296307493558443 0.0429630749376794 0.06469624773125464
0.07242056594386032 0.04111405540227814 0.03760705654606628
0.08067113878956471 0.02915145968035956 0.01490346612686087
0.08886103549278968 0.04294603339065232 0.01087748611811964
0.08055580907058597 0.01885908474979905 0.03875532610806676
0.07187533737936495 0.01796435678693094 0.04099704011376143
0.07351316544988708 0.02830370444734388 0.0198795552461614
0.09757943405765997 0.04111405540536615 0.03760705654744645
0.03496551718383085 0.05034949458726611 0.06564903473227814
0.08873931486787441 0.06353594916948593 0.02839221661941713
0.01794140866419223 0.02710188305574072 0.04889277156712253
0.07966826986724601 0.01821161168473771 0.0267313964500494
0.02722213564927954 0.027222135647683 0.04283143363882042
0.0460956632089082 0.03037394507594499 0.01501110356313842
0.0573213534916619 0.02757138714082382 0.01548855585001818
0.06442061926166097 0.03195667468560029 0.005610770525160286
0.02919986466538375 0.04526807257978781 0.03549784465753334
0.04338347899106176 0.02495858318794438 0.02589641783027601
0.09520795953759532 0.04948626599531203 0.01113488810980929
0.05034949458348341 0.03496551718409403 0.06564903473530571
0.08126068512936081 0.06353594917238899 0.0283922166233218
0.08116552335887922 0.0215923694577015 0.01860314754049591
0.04526807257136196 0.02919986466058187 0.03549784466245994
0.1093527003100207 0.06064729969042387 0.002436906947062972
0.05996938362687821 0.04998240410964105 0.01784218591870612
0.1203097366970665 0.04969026330125242 0.04012877230969055
0.07261659580562031 0.02508014628153368 0.0278485579045401
0.07353204288550332 0.04693343114344667 0.03326390621511997
0.06685555369915558 0.04772887705147675 0.06028684827417613
0.1075578927274265 0.01949106521133102 0.07032870249854267
0.1031444462977799 0.04772887705164759 0.06028684827102194
0.06244210727149651 0.01949106521506277 0.07032870249425413
0.08071489891041685 0.02373049324138644 0.02620592210985608
0.04772887704867765 0.06685555369990059 0.06028684827451167
0.01949106521535135 0.06244210727337995 0.07032870249800015
0.1248892802875533 0.01931099044675733 0.07191047498753872
0.07184788385189309 0.01885437197136816 0.04896575095069636
0.08072626674398986 0.01918495937527596 0.04718490185098552
0.05620665667828666 0.01875653390777716 0.02292344012816857
0.09646795711244303 0.0469334311466575 0.03326390621041483
0.08286616454170238 0.03115659275523273 0.004085635056771036
0.07444790756881677 0.03030151092149613 0.01005929417461358
0.04511071971569815 0.01931099044619239 0.07191047499343844
0.01931099044796118 0.0451107197140343 0.07191047499158607
0.03253261440640007 0.04045845122902676 0.06784653326627518
0.04045845122684447 0.03253261440878465 0.06784653326589016
0.1164730856806783 0.05352691432056034 0.06014808097068763
0.05352691432052812 0.05352691431761628 0.06014808097183108
0.08290871684458118 0.02717371692452631 0.0136112590788079
0.08139639791473247 0.04639260175117183 0.05867883753035408
0.07335218456356504 0.03725052773521498 0.06192915273516168
0.09664781543691373 0.03725052773573898 0.06192915274043159
0.09565415652424251 0.04682443112432435 0.05837693202373257
0.07434584347526092 0.04682443112395077 0.05837693202561194
0.1277303976234196 0.03397408982065642 0.07407659489823373
0.03725052773555295 0.07335218456327143 0.0619291527372155
0.1087735079591804 0.0546346775659596 0.05837555176273917
0.06122649204527213 0.05463467756995156 0.05837555176607043
0.1215862521078409 0.04841374788721913 0.02061509972919017
0.1095656905011084 0.05096151202149375 0.006966230344548871
0.1041163661903737 0.05171535104227543 0.003734611298739784
0.09441698575497628 0.05131303283434621 0.0003282577416817604
0.06436643981672376 0.02435930981176454 0.01580560194635603
0.07499240355548288 0.02557001845202773 0.01796832369944501
0.0546346775680325 0.06122649204256125 0.05837555176791375
0.07137994195690227 0.02001114595795453 0.06823448413408517
0.0644790610879587 0.04790085407025093 0.03455282883067061
0.0986200580425623 0.02001114596190481 0.06823448413826469
0.02001114596342901 0.07137994196018771 0.06823448413427298
0.06804845110826629 0.06804845110719822 0.05542107256558516
0.1196030672925676 0.05039693270209869 0.0100784775442784
0.1153653224333907 0.06122649204029608 0.05837555176345711
0.1055209389168602 0.04790085407153256 0.03455282882784173
0.08882138767024106 0.0365016476769723 0.0620500025798042
0.01949809156628485 0.03553791587917663 0.07280078446882
0.1182659318286493 0.0517340681686763 0.0008842437605373756
0.07054867128233808 0.01991549177985558 0.02072052509352191
0.06378470508171316 0.01771903822348601 0.02403130471357642
0.05447195543316975 0.01688804206813566 0.0302113207472069
0.03553791587864215 0.01949809156631614 0.07280078446453081
0.04189518189597714 0.02832186098341761 0.009774583331425134
0.08926982956391798 0.0268936428341785 0.03332121439458205
0.08063770491899248 0.01950879133394885 0.05417567663179167
0.07175056147389176 0.01915080663895369 0.05564706357940318
0.04998240410488916 0.05996938363090631 0.0178421859201581
0.01808959549713126 0.04452582663817707 0.04454401499841594
0.1133354956276811 0.0339189574048913 0.06312697275821974
0.08170617446686398 0.0735783972843839 0.02028677980053567
0.088352550608817 0.04627302772618279 0.03138632878734746
0.08164744939179372 0.04627302772784929 0.03138632878753989
0.05666450437120985 0.03391895740554319 0.06312697275493287
0.0339189574027311 0.05666450437062611 0.06312697275929037
0.0375437846284732 0.02873507277879159 0.005535525745022727
0.1201896719432687 0.04253333795646796 0.04137205394337017
0.08191382046706512 0.06627010721556305 0.05466260139807731
0.04452582664203347 0.01808959550079058 0.04454401499135006
0.07144473684210526 0.008186842105263157 0.01667307692307693
0.01796435678725717 0.07187533738774994 0.04099704011536198
0.06146661481700746 0.0675158978088735 0.009659587203981222
0.07313595603098227 0.04303568603208083 0.002569669736032168
0.02995317196585692 0.02995317196609016 0.06844241455727047
0.04841374788306838 0.04841374788223986 0.02061509974470198
0.06240789473684209 0.008186842105263157 0.01667307692307693
0.05337105263157894 0.008186842105263157 0.01667307692307693
0.04433421052631578 0.008186842105263157 0.01667307692307693
0.03529736842105263 0.008186842105263157 0.01667307692307693
0.1146381037366611 0.03066944317679243 0.05108601791045306
0.03977805419358656 0.02196664448940668 0.01780648990172781
0.05216250401443873 0.03103421601231646 0.003342308898042988
0.08050095080915795 0.02029955278902497 0.06689823652817917
0.1089670447523321 0.06103295524941658 0.02660091608581218
0.04960525622123536 0.06623192712928105 0.01496032911270572
0.06489790829314009 0.06489790829005759 0.005821694249717779
0.08949904919015679 0.02029955279316877 0.06689823652821214
0.07565014364376718 0.06768118864736219 0.05183959218078727
0.1177848800381358 0.04473841599281322 0.05760001190131472
0.1252615840052836 0.0522151199580879 0.05760001189932829
0.05221511996331353 0.04473841599261995 0.05760001190327269
0.04473841599022751 0.05221511996030394 0.05760001190314904
0.03279709241000957 0.06487922562213964 0.06028384810432356
0.06810619306690706 0.05342507407379169 0.05379805731903779
0.1018938069324828 0.05342507407492079 0.05379805731678635
0.05342507407212845 0.06810619306556639 0.0537980573224963
0.06897478671493212 0.05480321125304333 0.1116203904913743
0.1210688818361922 0.04057839265487451 0.02538852297189385
0.07463026194448213 0.05264841942104409 0.05278770637371574
0.09536973805422846 0.05264841942272618 0.05278770637739913
0.06206092788193496 0.05376336714172538 0.1159628171979959
0.1118649531472596 0.04064786707695505 0.0194526963938294
0.03529736842105263 0.008186842105263157 0.02543461538461539
0.04433421052631578 0.008186842105263157 0.02543461538461539
0.1042255634135324 0.04149387921737113 0.01463946054058031
0.09704912757723035 0.04259570526848225 0.01253579021025924
0.1166514107288808 0.01848055433570055 0.06813864757942148
0.05337105263157894 0.008186842105263157 0.02543461538461539
0.06240789473684209 0.008186842105263157 0.02543461538461539
0.05334858927307577 0.0184805543355514 0.06813864758639433
[...]
      <PointData>
        <DataArray type="UInt64" Name="type" format="ascii">
1
1
1
1
1
1
1
1
1
1
1
1
1
1
1
1
1
1
1
1
1
1
1
1
1
1
1
1
1
1
1
1
1
1
1
1
1
1
1
1
1
1
1
1
1
1
1
1
1
1
1
1
1
1
1
1
1
1
1
1
1
1
1
1
1
1
1
1
1
1
1
1
1
1
1
1
1
1
1
1
1
1
1
1
1
1
1
1
1
1
1
1
1
1
1
1
1
1
1
1
1
1
1
1
1
1
1
1
1
1
1
1
1
1
1
1
1
1
1
1
1
1
0
1
1
1
1
1
0
0
0
0
1
1
1
1
1
1
1
1
1
1
1
1
1
1
1
1
1
1
1
1
1
1
1
0
0
1
1
1
0
0
1
1
1
1
1
1
1
1
1
1
1
1
1
1
1
1
1
1
1
1
1
1
1
1
1
1
1
1
1
1
1
1
1
1
1
1
1
1
1
1
1
1
1
1
1
1
1
1
1
1
1
1
1
1
1
1
1
1
1
1
1
1
1
1
1
1
1
1
1
1
1
1
1
1
1
1
1
1
1
1
1
1
1
1
1
1
1
1
0
1
1
0
1
0
1
1
1
1
1
1
1
1
0
0
1
1
1
1
1
1
1
1
1
1
1
1
1
1
1
1
1
0
1
1
1
0
0
0
0
0
1
0
1
0
1
1
1
1
0
0
1
1
1
1
1
1
1
1
1
1
1
1
1
1
1
1
1
1
1
1
1
1
1
0
1
1
0
0
1
1
1
0
1
1
1
1
1
1
1
1
1
1
1
1
1
1
1
0
0
0
0
0
1
1
1
0
0
1
1
0
0
0
0
0
0
1
1
1
0
1
1
1
1
1
1
1
1
1
1
1
1
1
1
1
1
1
1
1
1
1
1
1
1
1
1
1
1
1
1
1
1
1
1
1
1
1
1
1
1
1
1
1
1
1
1
1
1
1
1
1
1
1
1
1
1
1
1
1
1
1
1
1
0
0
1
0
0
0
1
1
1
1
1
1
1
0
0
1
1
1
0
0
0
1
1
1
1
1
1
1
1
1
1
0
0
0
0
0
1
1
1
1
0
0
0
0
0
1
1
0
0
0
0
0
1
1
1
1
0
0
0
0
0
1
1
0
0
0
0
0
1
1
0
0
0
0
0
1
1
1
1
1
1
1
1
1
1
1
1
1
1
0
0
0
0
0
0
1
1
1
1
1
1
0
0
0
1
0
0
0
0
0
0
0
0
1
1
1
1
1
0
0
1
1
1
1
0
1
1
1
0
0
0
0
0
0
0
0
1
1
1
1
1
1
1
1
1
1
0
0
0
0
0
0
1
1
1
1
1
1
1
1
1
1
1
1
1
1
1
1
1
1
1
1
1
1
1
1
1
1
1
1
0
0
1
1
1
1
1
1
1
1
1
1
1
1
1
1
1
1
1
1
1
1
1
1
1
1
1
1
1
0
1
1
1
1
0
1
1
1
0
0
0
0
0
1
1
1
1
1
1
1
1
1
0
1
1
1
1
0
1
1
1
1
1
1
0
1
0
0
1
1
1
1
1
1
1
1
1
1
0
1
1
1
1
1
1
1
1
1
1
0
0
1
1
1
1
1
1
1
1
1
1
1
1
1
1
1
1
1
1
1
1
1
1
1
0
0
0
0
0
0
0
0
0
0
0
0
0
0
0
0
0
0
0
0
0
0
0
0
0
0
0
0
0
0
0
0
0
0
0
0
0
0
0
0
0
0
0
0
0
0
0
0
0
0
0
0
0
0
0
0
1
1
1
1
1
1
1
1
1
1
1
1
1
1
1
1
1
1
1
1
1
1
1
1
1
1
1
1
1
1
1
1
1
1
1
1
1
1
1
1
1
1
1
1
1
1
1
1
1
1
1
1
1
1
1
1
1
1
1
1
1
1
1
1
1
1
1
1
1
1
1
1
1
1
1
1
1
1
1
1
1
1
1
1
1
1
1
1
1
1
1
1
1
1
1
1
1
1
1
1
1
1
1
1
1
1
1
1
1
1
1
1
1
1
1
1
1
1
1
1
1
0
1
1
1
1
1
1
1
1
1
1
1
0
1
1
1
1
1
0
0
1
0
1
1
0
0
0
0
0
0
0
1
0
1
0
0
0
0
0
0
1
1
1
0
0
0
0
0
0
0
0
0
0
0
0
0
0
0
0
0
0
0
0
0
0
0
0
0
0
0
0
0
0
0
1
1
1
1
1
1
1
0
0
0
1
0
0
0
0
0
0
1
1
0
0
0
1
1
1
1
1
1
0
1
1
1
1
0
0
1
1
1
1
1
1
1
0
1
1
0
1
1
1
1
1
0
1
0
1
0
1
1
1
1
1
1
1
1
1
1
1
1
0
0
1
0
0
0
0
0
0
0
0
0
0
0
0
0
0
0
0
0
0
0
1
1
1
1
1
1
1
1
1
1
1
1
1
1
1
1
1
1
1
1
1
1
1
1
1
1
1
1
1
1
1
1
1
1
1
1
1
1
1
1
1
1
1
1
1
1
1
1
1
1
1
1
0
0
0
0
0
0
0
0
0
0
0
0
0
0
1
1
1
1
1
1
1
1
1
1
1
1
1
1
1
1
1
1
1
1
1
1
1
1
1
1
1
1
1
1
1
1
1
1
1
1
1
1
1
1
1
1
1
1
1
1
1
1
1
1
1
1
1
1
1
1
1
1
1
1
1
1
1
1
1
1
1
1
1
1
1
1
1
1
1
1
1
1
1
1
1
1
1
1
1
1
1
1
1
1
1
1
1
1
1
1
1
1
1
1
1
1
1
1
1
1
1
1
1
1
1
1
1
1
1
1
1
1
1
1
1
1
1
1
1
1
1
1
1
1
1
1
1
1
1
1
1
1
1
1
1
1
1
1
1
1
1
1
1
1
1
1
1
1
1
1
1
1
1
1
1
1
1
1
1
1
1
1
1
1
1
1
1
1
1
1
1
1
1
1
1
1
1
1
1
1
1
1
1
1
1
1
1
1
1
1
1
1
1
1
1
1
1
1
1
1
0
0
1
1
1
1
1
1
1
1
1
1
1
1
1
1
1
1
1
1
1
1
1
1
1
1
1
1
1
1
1
1
1
1
1
1
1
1
1
1
1
1
1
1
1
1
1
1
1
1
1
1
1
1
1
0
0
0
0
1
1
1
1
1
1
1
1
1
1
1
1
1
1
1
1
0
0
1
0
0
1
0
0
1
1
1
1
0
0
0
0
0
0
0
0
1
1
1
0
0
0
0
0
0
0
1
1
1
1
1
1
1
1
1
1
1
1
1
1
1
1
1
1
1
1
1
0
1
1
1
1
1
1
0
1
1
1
1
1
1
1
1
0
0
1
0
0
1
1
0
0
0
0
1
1
1
1
1
1
1
1
1
0
1
1
1
1
1
1
1
1
1
1
1
1
1
1
1
1
1
1
0
0
1
1
1
1
1
0
0
1
1
1
1
1
1
1
1
1
1
1
1
1
1
1
1
1
1
1
1
1
1
1
1
1
1
1
1
1
1
1
1
1
1
1
1
1
1
1
1
1
1
1
1
1
1
1
1
1
1
1
1
1
1
1
1
1
1
1
1
1
1
1
1
1
1
1
1
1
1
1
1
1
1
1
1
1
1
1
1
1
1
1
1
1
1
1
1
1
1
1
1
1
1
1
1
1
1
1
1
1
1
1
1
1
1
1
1
1
1
1
1
1
1
1
1
1
1
1
1
1
1
1
1
1
1
0
0
0
0
0
0
1
1
1
1
1
1
1
1
1
1
1
1
1
1
1
1
1
1
1
1
1
1
1
1
1
1
1
1
1
1
1
1
1
1
1
1
1
1
1
1
1
1
1
1
1
1
1
1
0
0
0
0
0
0
0
0
0
1
1
1
1
1
1
1
1
1
1
1
1
1
1
1
1
1
1
1
1
1
1
1
1
1
1
1
1
1
1
1
1
1
1
1
1
1
1
1
1
1
1
1
1
1
1
1
1
1
1
1
1
1
1
1
1
1
1
1
1
1
1
1
1
1
1
1
1
1
1
1
1
1
1
1
1
1
1
1
1
1
1
1
1
1
1
1
1
1
1
1
1
1
1
1
1
1
1
1
1
1
1
1
1
1
1
1
1
1
1
1
1
1
1
1
1
1
1
1
1
1
1
1
1
1
1
1
1
1
1
1
1
1
1
1
1
1
1
1
1
1
1
1
1
1
1
1
1
1
1
0
1
1
1
1
1
1
1
1
1
1
1
0
0
1
1
0
0
1
1
1
1
1
1
1
1
1
0
0
0
0
0
0
0
0
0
0
0
0
1
1
1
1
1
1
1
1
1
1
1
1
1
1
1
1
1
1
0
0
1
1
0
0
0
0
0
0
0
0
1
1
1
1
1
1
1
1
1
1
1
1
1
1
1
1
1
1
1
1
1
1
1
1
1
1
1
1
1
1
1
1
1
1
1
1
1
1
1
1
1
1
1
1
1
1
1
1
1
1
1
1
1
1
1
1
1
1
1
1
1
1
1
1
1
1
1
1
1
1
1
1
1
1
1
1
1
1
1
1
1
1
1
1
1
1
1
1
1
1
1
1
1
1
1
1
1
1
1
1
1
1
1
1
1
1
1
1
1
1
1
1
1
1
1
1
1
1
1
1
1
1
1
1
1
1
1
1
1
1
1
1
1
1
1
1
1
1
1
1
1
1
1
1
1
1
1
1
1
1
1
1
1
1
1
1
1
1
1
1
1
1
1
1
1
1
1
1
1
1
1
1
1
1
1
1
1
1
1
1
1
1
1
1
1
1
1
1
1
1
1
1
1
1
1
1
1
1
1
1
1
1
1
1
1
1
1
1
1
1
1
1
1
1
1
1
1
1
1
1
1
1
1
1
1
1
0
0
0
0
1
0
0
0
1
1
0
0
0
0
0
0
0
0
0
0
1
0
0
1
0
1
0
0
0
0
0
0
0
0
0
0
1
1
0
1
1
1
1
1
1
1
1
0
1
1
0
0
0
1
1
1
1
0
0
0
0
0
0
0
0
0
0
0
0
1
0
0
1
1
0
0
0
1
0
0
0
0
0
0
0
1
1
0
1
0
1
0
0
0
0
0
1
0
1
0
0
0
0
0
0
0
0
0
0
0
0
0
0
0
0
0
0
0
0
1
0
0
1
1
0
0
0
0
0
1
1
1
0
0
0
0
0
1
0
0
0
0
0
0
0
0
0
0
0
0
0
0
0
1
0
0
0
0
0
0
0
0
0
1
0
0
0
0
0
0
0
0
0
0
0
0
1
1
1
1
0
0
0
0
0
0
0
0
0
0
0
0
0
0
0
0
0
0
0
0
0
0
0
0
0
0
1
1
1
1
1
0
        </DataArray>
        <DataArray type="Float64" Name="density" format="ascii">
995.1182897320027
998.4872700681082
999.8267507938738
1001.067941362657
999.8267507860501
997.4345283548996
997.4345283659937
1000.728631138219
999.8267507876476
993.7298250075957
997.7375842277729
999.2461568208839
1000.083643941275
993.2939595960115
997.7375842700444
1004.047212584726
1000.372214154508
1000.372214265179
997.7375842531784
1001.757367440845
993.4809074593938
999.7317025962711
996.9930800316838
996.9930800215708
1000.904505597925
1000.904505639441
1003.058270466673
994.9000314190921
998.8068851383692
1001.580595422394
996.5433236140678
992.4325114321751
1013.466753781254
994.9000314084418
999.5922008796439
1002.89474385499
999.7317026450435
994.1481955984019
1001.591220683075
994.4703521200117
1012.266552650434
995.7360809318764
1003.148381493402
1016.572761680463
1000.728631132305
999.5922008420495
1002.894743881793
993.8164618043628
1003.148381514261
989.6601673169871
993.087393211017
1004.607643984172
1011.773930018809
1011.243886949158
996.745031839016
998.5699168232475
996.7450317880475
998.5699168345529
1009.130008369207
996.7450318266521
998.5699168590652
1001.090054621587
998.7890951996312
996.7546679500152
976.4242509734328
1011.243886935833
1002.343903768097
1004.655562108361
1001.090054686524
1001.09005468066
999.621517005107
999.6215169949352
999.8974313261538
999.8974313336272
993.9825453190178
997.2402299243677
1000.270996891256
1000.270996939837
997.2027769208644
997.2027769146642
1000.836666880636
1000.270996888219
998.5000357729887
998.5000357250286
1005.871423837785
1002.727339495174
1000.083643981247
999.2461568128525
977.7623525397374
1007.511667903553
998.5000357173337
999.5117613782701
1009.277247214064
999.5117613879179
999.5117614060116
1003.689982206841
996.8260308613482
998.5000357666787
1009.277247242269
997.5912341790988
1001.775349554759
1008.643842630866
996.9812391657356
997.9003183015903
1000.645363681805
1001.775349553997
1005.394313820245
1000.83191322562
1000.274600496408
1001.53534983797
993.087393197899
1000.159754321814
997.5309854308384
999.0652524152607
1010.823061269231
1010.823061275204
997.5309854166728
997.5309854441014
996.4587575014888
1000.615410871563
1001.673526103484
1000.159754331249
1000
992.4325114748257
1002.539317859813
1003.116909647772
994.6527102637125
1005.87142399389
1004.832578333625
1004.797212660869
1000.49998851866
1000.594351739458
1002.827996115104
994.6332530334446
1004.302203418274
1000.290388503649
1000.360264371059
1001.417444371627
997.8820641872888
1000.290388509984
1003.17380263894
1002.317884389902
1002.317884405779
1002.317884378701
1002.317884396782
993.7298250298859
1000.289364549543
1000.289364542882
1000.289364518809
1001.430066983484
1000.372214165935
1001.172978786968
1001.172978773875
1001.39796562861
999.7983049607269
1000.141977801309
1000
1006.449077687179
1005.557601033385
999.7651983245488
1002.789649329132
1005.482769184298
999.7651983488671
999.7651983539675
1001.780957813083
1001.780957818845
997.1101762496185
997.1101762046787
1000.367856585276
997.1101762014771
994.1252571787793
997.0974964307488
997.5884822045406
1002.191144085338
1002.191144079864
996.291043265838
1001.214426846334
1000.28911948152
997.7956854114483
1003.116909664216
1002.984277925311
1000.152136599347
1000.152136537317
1002.191144059253
1000.253200296276
1000.229123798415
1000.229123797976
1004.697373835342
1004.697373799243
1004.697373799632
1001.936705374491
1001.93670539768
994.1252571267966
998.4469529317596
998.7890951166742
997.6308430333115
999.7983049153627
998.8068851097134
993.7313459752605
996.7546679048899
999.7983050182041
1000.733173807265
1000.733173811109
993.3247895010186
1002.443307922725
1003.02105922969
1002.443307938685
1002.443307926377
1002.352706424657
1002.352706424786
994.0173122825212
1001.858734082248
994.0173122938021
1001.827833055622
1001.827833062389
1001.8587341689
996.7425812361334
998.6510312680848
993.1126130331546
993.1126130595068
998.4469529789054
1000.186389838939
1000.186389804283
1003.161965682212
1003.161965714939
1000.894254023578
995.0346205537732
995.0346206241637
1000.894253944627
1004.523642359662
1004.523642348761
989.0544514606914
989.0544514631109
1001.2368054538
999.9931750260415
999.9931750275316
1001.236805455243
1003.964411689813
1000.104167990037
1003.964411714084
1000.104167996056
1000.104167967966
985.6833964246847
985.6833964245679
999.7709609876367
999.7709609799509
984.7490014559833
995.8986766122597
1004.027517435474
995.8986766162712
1001.677317138034
1013.466753697542
997.5912341535405
1000
995.8986766733507
1000
1003.164865421857
999.6300784006359
1010.459293247825
1004.470354177431
1003.164865448053
1001.189153843008
1001.917688091895
1001.769243230194
1000
1000
1003.164865442134
1003.148381617361
1000.186389955534
993.4809074275378
1001.555370099327
1011.773929986004
1009.130008357836
1006.44907771928
1000.457900984445
1002.539317858836
1000.965220938472
1014.019104073864
1013.164965739124
1002.539317878172
1001.942526258354
1000.274600456437
998.1340041596615
1000
998.5799980439068
1000.457901023026
1000.980185918694
1000
1000.437728869543
1000.708246139855
1000.607571364505
1000.39050973618
995.761148962589
1002.740298125132
998.8324781023975
1000.359226918326
1000.457901021365
997.0523498465099
1002.185664310042
1001.535349770729
1000.049002024613
1000.151766177654
1001.555370021507
1001.221426303741
1000.658962583423
1001.555370103472
1001.221426332381
1001.283379259789
1001.28337926389
1001.283379281288
994.3594584191356
1002.257962277857
1002.257962265107
999.5775368442321
1004.859344413632
998.8683604619913
1002.257962299236
1000.101421737637
1004.859344376215
999.908119181062
1003.649621973465
1003.649621972802
999.256598478058
999.2565984989621
1000.289119595986
1000.428804897836
1002.598569305914
999.2565984298342
1002.25278379942
1013.653587384021
1002.598569316604
1002.598569276291
999.3598311157962
1000
1005.55760098342
999.3598311416057
1016.572761651371
989.6601673053144
1000.367856630502
1000.367856774141
1011.773929957584
1002.727339635864
1001.455936925002
1002.727339534028
1000.083643989419
999.9291656183187
999.9291656033334
1000.965221063724
1000.965220965854
1000.428804922137
1000
1000.664557017973
1000.827921101584
1000.200322642239
996.8260309484788
998.4507909950005
1000.713706815892
1000.453037039961
1000.259115389133
994.4773635800531
994.1758435230502
1001.411402346909
1000
1000.834869795496
1001.630058997559
1002.953178747286
1001.150707929163
1004.047212581107
1000.658962591131
1001.041236902965
1018.300601635072
1001.371740679241
1001.455936939762
991.2292929979479
1014.019104215633
1014.019104052095
996.1473681689596
996.1473680632558
997.7956853583878
997.7956854409974
995.5660495615956
995.5660494509377
1003.116909616892
993.7313457535582
993.7313459308319
994.1758436211563
999.7715592234639
1003.098692990933
1003.098692955043
1003.098692957963
1000.152754527631
1000.152754586099
1000.152754641293
1003.494399584573
1003.494399597292
1000.823075893698
1000.990988480671
1000.990988474138
996.3026693809661
996.3026694588796
993.2939595481284
993.2939595492518
1004.756104689676
1001.757367438115
1001.757367393909
1000.145587817849
994.9000314054318
1004.607643882986
1011.243886938327
1001.543137716006
1009.277247259094
997.2164527241781
1000.615410801512
1000.615410826489
1002.827996149429
1002.827996180411
1000.360264409553
1002.200565791501
993.3247893850826
993.3247894534703
997.0974964322196
1003.021059247772
1001.214426837356
996.2910431398858
1003.021059231191
1002.352706453063
994.017312301655
998.6510312063155
1001.827833067649
998.6510312600146
1003.161965738657
976.4242510075393
995.034620603349
989.0544514076124
1000
1002.789649393225
1006.616682229005
1005.482769225581
1001.677317180122
1002.252783831992
998.4469529227707
1000.026515831392
977.7623524846011
1001.067941327966
1003.024276443534
1004.217373022916
1010.459293227538
1000.499988520568
1004.797212635935
1004.470354123411
1004.470354104747
1001.769243291502
1004.832578344769
1000
1000
1001.942526326056
1001.942526260743
995.7611489577698
1004.302203212646
995.7611489036829
999.0859894336995
997.7799705759726
1007.511667867483
1001.296174495255
995.5697995079659
1011.693673618583
1020.969749156399
1023.112551033441
1018.300601633994
1013.653587399097
1013.164965846807
1013.164965785649
999.7888594316107
999.7888593809751
1000
1000
1000
1000
1000
1000.959201383767
1003.631337864701
1000
1000
1000
1000
1000
1000.159754301928
998.2343905235748
999.4024523651761
999.402452357372
1000.607571365525
1000.708246137881
1000.437728818382
1000
1000
1001.727376349205
998.9235087229605
1000.453037077411
1000.151766180179
1000.049002027431
1000.359226872736
1002.740298077982
1003.655066300964
1001.402129729693
1002.953178820603
1001.630059030733
1000.834869781846
1000
1001.411402311609
1001.727376296661
1000.539079594032
998.7546330021397
1000.645363721687
997.9003183148205
1000.539079610315
998.7890951277334
1002.185664307174
999.0087640247327
998.8324780541267
1001.296174519011
1002.984277889702
997.0523498321359
993.8164618471263
1000
1000
1000.116404288721
1000
1000.323152966507
1000.286218763305
1000.253200233501
1001.189153884322
1001.917688112345
998.7854102200799
999.9333698750107
999.9333698725857
1000.432234268056
1000.286218763281
1000.323152967333
993.9825452064707
1000
1000
1000
1023.112550985473
1020.969749099831
1011.693673600572
1023.665715864614
1000
1004.49557745465
1008.643842662447
997.2402299487445
1004.495577475633
999.085989448706
1000
1000.664556955493
999.0859894409347
998.754632922572
998.7546329277154
1013.466753588671
1000
999.1132277749108
994.9155379818002
1000.615410852712
1000.922426031295
1000.116404292742
1000
1000
1000
1000
1000
1000
996.2920099886929
1001.479538387924
1002.200565794724
1000.164419203075
1000.164419203409
1001.535349781514
1000.980185894942
998.5799980215943
1001.189153836651
1001.76924330531
1000
1000
1000
1000
1000
1000
1000.980185913208
1002.984277947847
1000.253200261783
998.5799980185024
998.8324780480102
1002.18566433301
997.0523498413611
998.2343905349859
1001.402129732686
998.9235086977574
1001.430066963082
1002.176328886601
999.1132277761908
994.9155379609464
999.5922008528725
993.7298250682161
1000.713706790437
1003.595687236383
994.9155379213657
999.1132277271373
995.5697995393683
994.2001366245826
994.1758435519179
995.8324393131898
994.200136649933
999.9291656288304
1004.077322924342
994.1481956253496
1003.406635304619
1003.250012175593
988.9919018279473
998.1003684718105
994.4773636814255
998.1340042249637
998.10036844527
1002.204506268607
996.9812391516111
995.1182895538503
997.097496539187
995.5660494769984
1001.402129767592
996.2910430626021
998.4857828026195
998.9235087036592
992.4325114442183
998.2343905401707
1004.302202955303
996.5433236309101
1001.214426752273
994.6332532060832
1012.266552630697
995.7360812425034
1004.655562179643
999.9235700955176
1002.343903800949
1000.894253950011
1002.899537998388
1004.329209843832
1002.899538017002
999.7719420175177
1000.122891602981
1000.726783463932
1003.793784471696
994.4703519650583
998.1340043621439
994.4773637677346
1000.221913496095
1000.201792471224
1003.203302427659
1000
1000
995.8324386974585
988.9919019937547
994.3594584162837
998.8683605712799
999.5775368710891
1000.101421823229
993.0873931785734
999.9081192790431
1000.122891635856
1000.545121044119
997.7799706420506
1001.917688096123
997.7799706365901
1000.831913192079
1000
999.9734827608441
1001.417444350461
1006.449077689127
1005.557601032703
1001.580595423876
997.0189797162716
1000.827921006909
997.0189797114452
1000.541314736751
1000.200322582186
995.5697995450588
997.0122251764319
995.832439332013
988.991901719442
1000.970288647687
994.3594583056198
999.577536717156
998.8683602963271
1000.101421618504
996.7873895304787
1001.731239588701
996.7873896168335
1001.417444357726
987.1496665611016
1016.195691263927
1000.809360633672
999.7888593581698
998.4872699820572
1000.959201425835
1000.959201408397
1000.152136519255
1007.366537271604
1003.974035543201
1000.713706801266
1007.810701907397
1009.536241310715
1012.266552569952
1005.571426545034
1005.571426645292
1006.242802656947
1006.242802567189
996.458757469191
1001.221426391624
994.4703520296237
1016.572761695227
976.4242510132212
977.7623525788549
999.526312010619
995.7360815021912
999.9367947959378
1005.018336851498
1000.289119410646
1005.28621720571
996.9812391743542
997.9003183782625
1000.645363733359
1000
1000.437728803856
1000.708246131053
1000.607571354475
1000.390509728177
1000.221913492561
1000.201792465496
1000.476790185067
1000.359226855203
1000.049002021296
1000.151766175627
1000.453037067932
1000.259115392259
1000
1000
1000
1000
1000.834869781672
1001.630058982119
1002.953178838693
1001.150708003321
1000.54512110548
1000
1000
1000
1000.664557027581
1000.827921118994
1000.200322669891
1000.541314710017
1001.731239576222
1003.793784409609
1002.269077154564
1001.677317247247
1005.482769278148
1002.789649405197
1000
1000.141977766949
1003.406635271316
1004.329209774633
1003.672074207518
1000
1004.83257840314
1004.797212697266
1000.499988526205
1000.594351446261
1003.203302262762
1003.250011945619
1001.193945990153
1018.300601639641
1023.11255103148
1020.969749126087
1011.693673609435
1023.665715897237
1007.366537270099
1003.974035468906
1000.891213991645
997.5884821858418
1002.347983763907
1005.394313839146
1005.286217213108
1002.12137234829
998.6971272798756
996.6737341245885
1000.18016850229
998.7268809766221
997.45957434401
1000.877909705155
1002.121372346924
998.6763559438107
1001.092894928661
999.8011346387366
1000.440851448811
1003.226708257562
998.6971272899005
1000.818449785713
997.7761447460881
999.5155749545489
996.6737341813325
999.6031171266598
1001.180091805785
1000.69869835682
998.443284448446
1001.781572530861
997.776144760431
1000.417886204112
1001.597259710007
1001.034461198626
1002.040475640376
998.9567009130161
1000.003528347755
1001.887519971985
1001.092894876442
1001.067941328201
1000.590546941891
997.5039061615852
1000.003528358483
1001.445818204692
1002.011242356266
1001.128435145563
1002.011242361012
1001.058576302291
998.1060919317672
999.3066320566659
999.9188514835397
998.8197758616682
1001.128435191794
997.4595743396034
1001.567323530317
1001.781572549825
1002.358638849047
1000.590547015645
997.458422718145
1002.031702338078
998.2130401301538
1000.44085138281
1002.843395975519
1000.167815865148
998.8197758626793
1002.03170231184
998.7688472486343
999.2275430257604
1000.855486139424
997.2164526592903
1000.170655603942
999.2241005602581
998.106091973543
1001.967639450671
1001.902805045991
997.5039061482291
1001.597259714564
1000.417886203097
998.4432844703392
1000.853790879791
1000.613965519345
1000.853790837005
999.2275430214363
1000.613965519055
1001.371361956562
1001.18009180678
1000.124614557986
1000.174036627847
1001.269049117204
1000.406722486761
1000.991681358998
999.776549253428
1001.902805029886
1000.16277388064
1001.743458623666
999.8011346357447
1003.226708213803
999.776549250032
999.4748234265741
1000.174036599387
1000.148181476436
1000.991681358017
1001.034461217164
1001.269049151193