<VTKFile type="PolyData" version="1.0" byte_order="LittleEndian" header_type="UInt64">
  <PolyData>
    <Piece NumberOfPoints="2951" NumberOfVerts="2951">
      <Points>
        <DataArray type="Float64" Name="Points" NumberOfComponents="3" format="ascii">
0.143214995261056 0.1522043260877544 0.05016475377281517
0.1522043260821291 0.1432149952652947 0.05016475377545238
0.1342471170422852 0.1527818403869262 0.03832298803222341
0.1527818403882473 0.1342471170482208 0.03832298802966322
0.1260891116552539 0.1535739025270722 0.02975962448222075
0.1535739025261068 0.126089111648587 0.02975962448893344
0.1154200602668845 0.1530318271171081 0.02417100409274403
0.08853327561081017 0.1121492101641971 0.01111483182435383
0.1060237690223649 0.1496900947972833 0.01925974888972557
0.1124859713745842 0.1047875502483321 0.03475602685359709
0.09998844434976255 0.147927537022083 0.01805575668202432
0.08844239830209828 0.1460585905188808 0.01655695026067492
0.1132210221832772 0.1293667569838157 0.01171197959503824
0.125588759077433 0.1401586269506376 0.01168185147526138
0.1401586268194178 0.1255887592405794 0.01168185137266712
0.1047875502475713 0.112485971374637 0.03475602685207801
0.150237740717583 0.1250114640949631 0.02186884532859711
0.1250114641212415 0.1502377406963596 0.02186884528000612
0.1494783809544549 0.149478381108124 0.02201156560337827
0.08914072706239495 0.1047312266138989 0.005323037587525426
0.0965786295024616 0.1131244767822948 0.03310665209142267
0.08085927293624963 0.1047312266171535 0.005323037590295192
0.1052989020056721 0.1052989020078894 0.03089860452677623
0.1064760935836188 0.1442965172399268 0.03358446134147276
0.09627453382023192 0.1055274389336156 0.02883639602158988
0.07280332346628887 0.1447482054578385 0.03199661514693802
0.09719667652822764 0.144748205457702 0.03199661514652823
0.1047049803932256 0.1281748787889855 0.005927213862062708
0.1231605923397869 0.1051934972637045 0.03749848147897752
0.1222153040732671 0.1119416156071607 0.03885384479219217
0.08909298770151057 0.1442127587234728 0.03046383970961822
0.08090701229401746 0.1442127587308319 0.03046383971547291
0.1314805523407555 0.1139292388508871 0.04584723410222811
0.1352509410398725 0.1201218990171592 0.004006827780945535
0.09741787663616978 0.1279244636514343 0.004045748313823037
0.07258212335062382 0.1279244636503763 0.00404574831016048
0.08918537860445654 0.1271255014509606 0.002114394206479264
0.1318520140216274 0.1056029642072213 0.04255534727845867
0.08081462139448983 0.127125501455059 0.002114394208155412
0.112058642900598 0.1120586428993382 0.02897979937782684
0.1117081804665506 0.1049142835909354 0.02517063365400602
0.104914283588847 0.1117081804670018 0.02517063365337767
0.09591740171080196 0.1119420130007391 0.02316102134336779
0.1491551653892566 0.1233780573790178 0.01932107454070523
0.1057086416014388 0.1057086416042117 0.02034930887091788
0.09512822118865671 0.1053111486957495 0.01765543233437613
0.1347598224182114 0.1522843826347971 0.04725491839530922
0.1522843826299363 0.1347598224210485 0.04725491840367688
0.1263968717631342 0.1525854616620433 0.03979055697052412
0.1525854616691221 0.1263968717672079 0.03979055696984461
0.1161771350102281 0.1531585379651509 0.03422371015924435
0.1071949404460669 0.1538075446283421 0.02911323545213423
0.1427243300061387 0.1155155726109294 0.05800074587702766
0.09932327128205597 0.1527310479949384 0.02577375080798902
0.0903633657832732 0.1506935303102236 0.02182827317382524
0.1226899755030513 0.1121508850541815 0.03028031704982478
0.123304785701289 0.1057459278497618 0.02708299905816724
0.1317716208091622 0.1134001292640367 0.03760866632429985
0.1318986450533416 0.1058176463815521 0.03441407606276316
0.1119297066828399 0.1119297066775332 0.01875416650516423
0.1123452103968635 0.1123452103958277 0.03846052586142214
0.1225509604954288 0.1225509605000491 0.02250939800531051
0.1230431233257689 0.096662593746695 0.04308420044720212
0.03833228168114849 0.08088352280451715 0.04969298614031387
0.1114642569127476 0.1048625996344962 0.01374124586321234
0.1048625996349995 0.1114642569099554 0.01374124586314182
0.1411171697908526 0.1411171693273855 0.009918754476666855
0.09686391229318779 0.1123187154023066 0.01229829734050412
0.1458017350389623 0.1409243359081926 0.01288087513169521
0.1409243357552907 0.1458017349693518 0.0128808750877429
0.1521823115469387 0.152182311560691 0.03993852324314232
0.1527691537500512 0.1527691537691809 0.02846550750694894
0.1371324909868051 0.1401480154345114 0.00591238009366385
0.105665409184404 0.1056654091849921 0.008745789563675074
0.0955635852494799 0.1046020865337146 0.006643453808840877
0.140148015155422 0.1371324906772741 0.005912379797586362
0.1168052052777127 0.1523767230006998 0.05253125133467608
0.03833228168092923 0.08911647719556096 0.04969298614336969
0.08925565091290459 0.08925565091315862 0.02343417389939669
0.02720836293682353 0.08038623056393754 0.05306977649831974
0.02720836294146162 0.0896137694392011 0.05306977649494272
0.03954175776895728 0.1220823985111565 0.05118838001678407
0.07305530217462407 0.08111291101412729 0.04660036885764595
0.07305530217583511 0.08888708898628778 0.04660036885824863
0.0811129110129216 0.09694469782331136 0.04660036885877139
0.1149222706453715 0.1448525263969383 0.02981568515504591
0.05745085048377291 0.1125491495175197 0.04815449358098748
0.05659926976983815 0.1296223813547517 0.07112999247641984
0.02951619660301942 0.1322944655532515 0.07514587980519405
0.03770553444574686 0.140483803393944 0.07514587980716364
0.08070534763669546 0.08070534763723002 0.04568412101285552
0.08906069944944156 0.08906069945016279 0.01347738087070796
0.08070534763610998 0.08929465236289781 0.04568412101241461
0.02805461317660046 0.1241734359184584 0.0537592159768337
0.06440475140963289 0.1306383990501312 0.07012360126015545
0.09581764381210511 0.09581764381386469 0.002349721891038773
0.08951842105263157 0.1618131578947369 0.007911538461538463
0.09855526315789473 0.1618131578947369 0.007911538461538463
0.1075921052631579 0.1618131578947369 0.007911538461538463
0.116628947368421 0.1618131578947369 0.007911538461538463
0.1256657894736842 0.1618131578947369 0.007911538461538463
0.1347026315789474 0.1618131578947369 0.007911538461538463
0.1437394736842105 0.1618131578947369 0.007911538461538463
0.0478227453123853 0.1124579801364804 0.0480801571375483
0.1527763157894737 0.1618131578947369 0.007911538461538463
0.05754201986292779 0.1221772546873379 0.04808015713638357
0.08878865705996453 0.09624736035261762 0.0006279170823870054
0.1309223591426104 0.1227404244035484 0.02610189133553747
0.1227404244028325 0.1309223591492703 0.02610189133058986
0.1074572085772564 0.1525689266724783 0.04900349092317192
0.121769028211912 0.1112152774601635 0.0211398357055314
0.1219780007128048 0.1052191786990348 0.01840832310262323
0.01781902659719224 0.1257858764826384 0.05708129042303379
0.03115562991851406 0.1226169939375378 0.08211775280557196
0.04057579355179071 0.1294242064495672 0.0714445848447226
0.1070667039516433 0.1434727825351198 0.02634529124578056
0.01778134402591788 0.09839354385506068 0.05565059118029912
0.1428363206431063 0.1154721726341599 0.05022014512811172
0.07319956866716078 0.1476653055978394 0.02486428927180165
0.09680043132821296 0.1476653056190393 0.02486428928215452
0.08908579851070611 0.1464134299362433 0.02269671599323502
0.08091420148268642 0.1464134299639927 0.02269671599489361
0.09840672587937352 0.1519608618874241 0.04666894119667658
0.07159327411561667 0.1519608618959735 0.0466689411933155
0.1310407504170681 0.1134060123006589 0.02953723515840253
0.1116380497680671 0.1116380497659912 0.008582772093589748
0.1307603674865108 0.1052115543325292 0.02655246804291708
0.1428782950361397 0.1072110583663047 0.0473334754894255
0.05746200675702338 0.1047449922339296 0.04534910341445519
0.131256811517513 0.09710751304502652 0.0246665262074942
0.06525500776681108 0.1125379932456849 0.04534910341506816
0.08955745120211984 0.1511859715401257 0.04476909104395185
0.1104496426896036 0.1041309461854043 0.002632692979363515
0.1041309461823907 0.1104496426888209 0.002632692979242724
0.04787721773228366 0.1221227822621548 0.04805689147410446
0.08044254878960733 0.1511859715460493 0.04476909104079404
0.05316211285191515 0.1515603250654325 0.07666023850271411
0.04463627571959584 0.1515746587136339 0.08051189473623124
0.08080105989962509 0.1305482770826422 0.06743251260971128
0.05450655837359555 0.1412627731258536 0.07223495206391514
0.1209918754135473 0.1104150986658071 0.01179992417123023
0.1213720334819522 0.1048453484293052 0.007936647317863459
0.06471502427126842 0.1232779543979908 0.04588989292357545
0.1299493036298653 0.1134990634426591 0.02102762593266002
0.1291924645276737 0.1055054335919309 0.01759970754644439
0.04672204560025937 0.1052849757279568 0.04588989292071818
0.1287022151501234 0.09770834533300123 0.01509259092558375
0.1432840305407663 0.1154405157401733 0.04324248216986743
0.07233255445664326 0.1303632087327943 0.06732146103694528
0.1302725461336502 0.1302725461370512 0.03081891862808666
0.08951842105263157 0.1618131578947369 0.01667307692307693
0.1618131578947369 0.1618131578947369 0.07800384615384616
0.1618131578947369 0.1527763157894737 0.07800384615384616
0.1618131578947369 0.1437394736842105 0.07800384615384616
0.1618131578947369 0.1347026315789474 0.07800384615384616
0.1618131578947369 0.1256657894736842 0.07800384615384616
0.06414044607062448 0.1058595539290533 0.04352353192915161
0.09855526315789473 0.1618131578947369 0.01667307692307693
0.1618131578947369 0.1618131578947369 0.0692423076923077
0.1618131578947369 0.1527763157894737 0.0692423076923077
0.1618131578947369 0.1437394736842105 0.0692423076923077
0.1618131578947369 0.1347026315789474 0.0692423076923077
0.1618131578947369 0.1256657894736842 0.0692423076923077
0.1217865215610049 0.1217865215694795 0.01312998212275076
0.1075921052631579 0.1618131578947369 0.01667307692307693
0.1618131578947369 0.1618131578947369 0.06048076923076924
[...]
      <PointData>
        <DataArray type="UInt64" Name="type" format="ascii">
1
1
1
1
1
1
1
1
1
1
1
1
1
1
1
1
1
1
1
1
1
1
1
1
1
1
1
1
1
1
1
1
1
1
1
1
1
1
1
1
1
1
1
1
1
1
1
1
1
1
1
1
1
1
1
1
1
1
1
1
1
1
1
1
1
1
1
1
1
1
1
1
1
1
1
1
1
1
1
1
1
1
1
1
1
1
1
1
1
1
1
1
1
1
1
1
0
0
0
0
0
0
0
1
0
1
1
1
1
1
1
1
1
1
1
1
1
1
1
1
1
1
1
1
1
1
1
1
1
1
1
1
1
1
1
1
1
1
1
1
1
1
1
1
1
1
1
1
1
1
0
0
0
0
0
0
1
0
0
0
0
0
0
1
0
0
0
0
0
0
0
0
0
0
1
1
1
0
0
0
0
0
1
1
1
0
0
0
0
0
1
1
0
1
0
0
0
0
0
0
0
1
0
0
0
0
1
1
1
0
0
0
0
0
0
0
0
0
0
1
1
1
1
1
1
1
1
1
1
1
1
0
0
0
0
0
0
0
0
0
0
0
0
0
0
0
0
0
0
0
0
0
0
0
0
0
0
0
0
0
0
0
0
0
0
0
0
0
0
0
0
0
0
0
0
0
0
0
0
1
1
1
1
1
1
1
1
1
1
1
1
1
1
1
1
1
1
1
1
1
1
1
1
1
1
1
1
1
1
1
1
1
1
1
1
1
1
1
1
1
1
1
1
1
1
1
1
1
1
1
1
1
1
1
1
1
1
1
1
1
1
1
1
1
1
1
1
1
1
1
1
1
1
1
1
1
1
1
1
1
1
1
1
1
1
1
1
1
1
1
1
1
1
1
1
1
1
1
1
1
1
1
1
1
1
1
1
1
1
1
1
1
1
1
1
1
1
1
1
1
1
1
1
1
1
1
1
1
1
1
0
0
0
1
0
0
0
1
0
0
0
1
0
0
0
1
0
0
0
1
0
0
0
1
0
0
0
1
0
0
1
0
0
1
1
1
1
1
1
1
1
1
1
1
1
0
0
0
0
1
1
1
1
1
1
1
1
1
0
0
1
1
1
1
0
0
1
1
1
1
0
0
1
1
1
1
1
1
0
1
1
1
1
1
1
1
1
1
1
1
1
1
1
1
1
1
1
1
1
1
1
1
1
1
1
1
1
1
0
1
1
1
1
1
1
1
1
1
1
1
1
1
1
1
0
1
1
1
1
1
1
1
1
1
1
1
0
1
1
1
1
1
1
1
1
1
1
1
1
1
1
1
1
1
1
1
1
1
1
1
1
1
1
1
1
1
1
1
1
1
1
1
1
1
1
1
1
1
1
1
1
1
1
1
1
1
1
1
1
1
1
1
1
1
1
1
1
1
1
1
1
1
1
1
1
1
1
1
1
1
1
1
1
1
1
1
1
1
1
1
1
1
1
1
1
1
1
1
1
1
1
1
1
1
1
1
1
1
1
1
1
1
1
1
1
1
1
1
1
1
1
1
1
1
1
1
1
1
1
1
1
1
1
1
1
1
1
1
1
1
1
1
1
1
1
1
1
0
0
0
0
0
0
0
1
1
1
1
1
1
1
1
1
1
1
1
1
1
1
1
1
1
1
0
0
0
0
0
0
0
1
1
1
1
1
1
1
1
1
1
1
1
1
1
1
1
1
1
1
1
1
1
1
1
1
1
1
1
1
1
1
1
1
1
1
1
1
1
1
1
1
1
1
1
1
1
1
1
1
1
1
1
1
1
1
1
1
1
1
1
1
1
1
1
1
1
1
1
1
1
1
1
1
1
1
1
1
1
1
1
1
1
1
1
1
1
1
1
1
1
1
1
1
1
1
1
1
1
1
1
1
1
1
1
0
0
0
0
0
0
0
0
0
0
0
0
1
0
0
0
0
0
0
0
0
0
0
0
0
0
0
0
0
0
0
0
0
0
0
0
0
0
1
0
0
0
0
0
0
0
1
1
1
1
1
1
1
1
1
0
0
0
0
0
0
0
1
0
0
0
0
0
0
0
1
0
0
0
0
0
0
0
0
0
0
0
0
0
0
1
0
0
0
0
0
0
0
1
0
0
0
0
0
0
0
0
0
0
0
0
0
0
1
0
0
0
0
0
0
0
1
1
1
1
0
0
0
0
1
1
1
0
0
0
0
1
1
1
1
1
1
1
1
1
1
1
1
1
1
1
1
1
1
1
1
1
1
1
1
1
1
1
1
1
0
0
0
0
0
0
0
1
1
1
1
1
1
1
1
1
1
1
1
1
1
1
1
1
1
1
1
1
1
1
1
1
1
1
1
1
1
1
1
1
1
1
1
1
1
1
1
1
1
1
1
1
1
1
1
1
1
1
1
1
1
1
1
1
1
1
1
1
1
1
1
1
1
1
1
1
1
1
1
1
1
1
1
1
1
1
1
1
1
1
1
1
1
1
1
1
1
1
1
1
1
1
1
1
1
1
1
1
1
1
1
1
1
1
1
1
1
1
1
1
1
1
1
1
1
1
1
1
1
1
1
1
1
1
1
1
1
1
1
1
1
1
1
1
1
1
1
1
1
1
1
1
1
1
1
1
1
1
1
1
1
1
1
1
1
1
1
1
1
1
1
1
1
1
1
1
1
1
1
1
1
1
1
1
1
1
1
1
1
1
1
1
1
1
1
1
1
1
1
1
1
1
1
1
1
1
1
1
1
1
1
1
0
0
0
0
0
0
0
1
1
1
1
1
1
1
1
1
1
1
1
1
1
1
1
1
1
1
1
1
1
1
0
0
0
0
0
0
0
0
0
0
1
1
1
1
1
1
1
1
1
1
1
1
1
1
1
1
1
1
1
1
1
1
1
1
1
1
1
1
1
1
1
1
1
1
1
1
1
1
1
1
1
1
1
1
1
1
1
1
1
1
1
1
1
1
1
1
1
1
1
1
1
1
1
1
1
1
1
1
1
1
1
1
1
1
1
1
1
1
1
1
1
1
1
1
1
1
1
1
1
0
0
1
1
1
1
1
1
1
1
1
1
1
1
1
1
1
1
1
1
1
1
1
1
1
1
1
1
1
1
1
1
1
1
1
1
1
1
1
1
1
1
1
1
1
1
1
1
1
1
1
1
1
1
1
1
1
1
1
1
1
1
1
1
1
1
1
1
1
1
1
1
1
1
1
1
1
1
1
1
1
1
1
1
1
1
1
1
1
1
1
1
1
1
1
1
1
1
1
1
1
1
1
1
1
1
1
1
1
1
1
1
1
1
1
1
1
1
1
1
1
1
1
1
1
1
1
1
1
1
1
1
1
1
1
1
1
1
1
1
1
1
1
1
1
1
1
1
1
1
1
1
1
1
1
1
1
1
1
1
1
1
1
1
1
1
1
1
1
1
1
1
1
1
1
1
1
1
1
1
1
1
1
1
1
1
1
0
1
1
1
1
0
0
0
0
0
0
0
0
0
1
1
1
0
1
1
1
1
1
0
1
0
1
1
1
1
1
1
1
1
1
1
1
1
1
1
1
0
0
0
0
0
0
1
1
1
1
1
1
1
1
1
1
1
1
1
0
0
0
1
1
1
1
1
1
1
1
1
1
1
1
1
1
1
1
1
1
1
1
1
1
1
1
0
1
1
1
1
1
1
1
1
1
1
1
1
1
1
1
1
1
1
1
1
1
1
1
1
1
1
1
1
1
1
1
1
1
1
1
1
1
1
1
1
1
0
1
0
0
0
0
0
0
0
0
0
0
0
0
1
1
1
1
1
1
1
1
1
1
1
1
1
1
1
1
1
1
1
1
1
1
1
1
1
1
1
1
1
1
1
1
1
1
1
1
1
1
1
1
1
1
1
1
1
1
1
1
1
1
1
1
1
1
1
1
1
1
1
1
1
1
1
1
1
1
1
1
1
1
1
1
1
1
1
1
1
1
1
1
1
1
1
1
1
1
1
1
1
1
1
1
1
1
1
1
1
1
1
1
1
1
1
1
1
1
1
1
1
1
1
1
1
1
1
1
1
1
1
1
1
1
1
1
1
1
1
1
1
1
1
1
1
1
1
1
1
1
1
1
1
1
1
1
1
1
1
1
1
1
1
1
1
1
1
1
1
1
1
1
1
1
1
1
1
1
1
1
1
1
1
1
1
1
1
1
1
1
1
1
1
1
1
1
1
0
0
1
0
1
0
1
1
1
1
1
1
1
1
1
1
1
1
1
1
1
1
1
1
1
1
1
1
1
1
1
1
1
1
1
1
1
1
1
1
1
1
1
1
1
1
1
1
1
1
1
1
1
1
1
1
1
1
1
0
0
0
0
1
1
0
1
1
1
1
1
1
1
1
1
1
1
1
1
1
1
1
1
1
1
1
1
1
1
1
1
1
1
1
1
1
1
1
1
1
1
1
1
1
1
1
1
1
1
1
1
1
1
1
1
1
1
1
1
1
1
1
1
1
1
1
1
0
0
0
0
0
0
1
0
0
1
0
0
0
0
0
0
0
0
0
0
0
0
0
1
1
1
1
1
1
1
1
1
1
1
1
1
1
1
1
1
1
1
1
1
1
1
1
1
1
1
1
1
1
1
1
1
1
1
1
1
1
1
1
1
1
1
1
1
1
1
1
1
1
1
1
1
1
1
1
1
1
1
1
1
1
1
1
1
1
1
1
1
1
1
0
0
0
0
0
0
0
0
0
1
1
1
1
1
1
1
1
1
1
1
1
1
1
1
0
0
0
0
0
0
0
0
0
1
1
1
1
1
1
1
1
1
1
1
1
1
1
1
1
1
1
1
1
1
1
1
1
1
1
1
1
1
1
1
1
1
1
0
0
0
0
0
0
0
0
0
1
1
1
1
1
1
1
1
1
1
1
1
1
1
1
1
1
1
1
1
1
1
1
1
1
1
1
1
1
1
1
1
1
1
1
1
1
1
1
1
1
1
1
1
1
1
0
0
0
0
0
0
1
1
1
1
1
1
1
1
1
1
1
1
1
1
1
1
1
1
1
1
1
1
1
1
1
1
1
1
1
1
1
1
1
1
1
1
1
1
1
1
1
1
1
1
1
1
1
1
1
1
1
1
1
1
1
1
1
1
1
1
1
1
1
1
1
1
1
1
1
1
1
1
1
1
1
1
1
1
1
1
1
1
1
1
1
1
1
1
1
1
1
1
1
1
1
1
1
1
1
1
1
1
1
1
1
1
1
1
1
1
1
1
1
1
1
1
1
1
1
1
1
1
1
1
1
1
1
1
0
0
0
0
0
1
0
0
0
0
0
0
0
0
0
0
0
0
0
0
0
0
0
0
0
0
0
0
0
0
1
1
1
1
1
1
1
1
1
1
1
1
1
1
1
1
1
1
1
1
0
1
0
1
1
0
1
1
1
1
1
1
1
1
1
0
1
1
1
0
1
0
0
0
0
0
0
0
1
1
1
1
0
0
0
0
0
1
0
1
1
1
0
0
1
1
1
1
1
0
0
1
0
0
0
0
0
1
0
0
0
0
1
1
0
1
1
1
0
1
1
1
1
1
0
0
1
0
1
1
1
1
1
1
1
0
1
1
0
1
0
1
1
1
0
0
0
1
1
1
0
0
0
0
1
1
1
1
1
0
1
1
1
1
1
0
1
0
0
1
1
0
0
1
0
0
0
0
0
0
0
0
0
0
0
1
1
1
0
0
0
0
0
0
0
0
0
0
0
0
0
1
1
1
0
0
0
1
0
0
1
1
1
1
1
1
1
1
0
0
0
1
0
0
0
0
0
0
0
0
0
0
0
0
0
0
0
0
0
0
0
0
1
1
1
1
1
0
0
0
0
0
0
0
0
0
0
0
0
0
0
0
0
0
0
0
0
0
0
0
0
0
0
0
0
0
0
0
0
0
1
0
1
1
0
1
1
1
1
1
1
0
1
1
0
0
0
0
0
0
0
1
1
1
0
1
1
1
1
1
1
1
1
1
1
1
1
0
0
1
1
0
1
1
0
0
1
1
0
0
1
1
1
0
1
1
1
1
1
1
1
1
1
1
1
0
0
0
1
0
0
1
1
1
0
1
1
1
1
1
1
1
1
1
1
1
1
1
1
1
1
1
1
1
1
1
1
1
1
1
1
1
1
1
1
1
1
1
1
1
1
1
1
0
1
1
1
1
1
1
1
1
1
1
1
1
1
0
0
1
1
1
1
1
0
1
1
1
1
1
1
1
1
1
1
0
0
1
1
1
1
1
1
1
1
1
1
1
1
1
1
1
0
0
1
1
0
0
0
0
0
0
0
0
0
0
0
0
1
1
1
1
1
1
1
1
1
1
1
1
1
1
1
1
1
0
1
1
1
0
1
1
1
1
1
1
1
1
1
1
1
1
1
1
1
1
1
1
1
1
1
1
1
1
0
1
1
1
1
1
1
0
1
1
1
1
1
1
1
1
1
1
1
1
1
1
0
1
0
1
1
1
1
1
1
1
1
1
1
1
1
1
1
1
1
1
1
1
1
1
1
1
1
1
1
1
1
1
0
0
0
0
1
0
1
1
1
1
1
1
1
1
1
1
1
1
1
1
1
1
1
1
1
1
1
1
1
1
1
1
1
0
0
1
1
1
1
1
1
1
1
1
0
1
1
1
1
1
0
0
0
0
0
0
0
0
1
0
0
0
0
1
1
1
0
1
1
1
0
0
0
0
0
0
        </DataArray>
        <DataArray type="Float64" Name="density" format="ascii">
1000.312615500909
1000.31261555541
997.223671340982
997.2236713654985
998.2451019945959
998.2451020421316
989.9415775864155
1001.730435289261
992.4992132900506
997.5653165357356
996.6675722539021
1005.336403678831
1006.556775539426
1007.923635524509
1007.923635278476
997.5653165527293
978.9675591525474
978.9675592474588
994.8564917986314
999.0794826361262
994.8170221643054
999.0794826614343
1004.823172189856
1002.292823625799
1002.784962847483
1005.660739985008
1005.660739919917
991.3865561650118
1007.929333823726
999.9604908859294
1007.933245150801
1007.933245235085
998.2649820684388
995.9865791101746
998.5992302302748
998.5992302985472
998.0157883886641
1000.989515695851
998.0157884173614
993.4364133728874
1001.521051249141
1001.521051282391
996.2914218439453
998.8179219454605
1003.643878327899
998.3054213511988
999.4125382207233
999.4125382939353
998.1459342307347
998.1459341846319
996.6527664385189
993.1311748477132
1002.19452847272
992.478972003481
988.4717146005265
1002.421519861172
1007.828265753536
993.3422815201732
996.2604299826975
999.5243316624901
992.6522867277239
1005.823138289148
1001.541178878231
997.7119434439992
1002.579002326002
1002.579002345197
997.3864167019875
998.6177646784314
999.6162769781679
999.616276831151
999.6685860834176
998.9008599308125
1000.60901126487
1001.145036729657
1002.103883870002
1000.609010830394
1000.923751270465
997.7119434563389
1002.581987498751
1000.528945400514
1000.528945430866
999.9347131628356
999.7054096540817
999.7054096568573
999.7054096570258
1005.403361663665
997.8510407810971
997.3373507758827
1003.04250025627
1003.042500251508
1003.598002785957
1002.000562958243
1003.598002787936
1002.856025164704
997.937629018411
997.0645479875251
1013.396812685409
1015.834629549656
1018.320786961536
1018.958575498082
1013.332776384084
1023.793221289714
1006.804169371813
1002.124238406329
1000.522439559482
1002.124238391227
1000.610943358291
1000.148419989388
1000.148419991676
997.4370874407898
1000.332907457577
1003.99654234987
1000.077673136324
1000.694250320377
1000.195058941824
1010.286671117923
996.3580590097296
1002.967644858593
1006.366933633926
1006.36693355695
1006.40907647363
1006.409076356207
998.5834164566274
998.583416462072
987.7587299145436
1007.484574625106
993.2255134946079
1001.776969589064
999.6262713963525
992.8039254694291
999.6262714050839
999.4567204488249
997.1403405273345
997.1403405526409
1002.530542148163
999.4567204635739
999.4874502309558
1000.012575259554
994.0302179429108
1000.635437482945
1003.51719535608
1002.088187832745
1003.238160511736
995.0821268025811
1002.739811215872
1003.238160541398
1005.25886401789
999.9219111531688
997.5425062121286
1003.432139083082
1000.698808146965
1000
1000.061351816202
1000.417233914112
1000.393332513965
1000.296477015522
1004.104482690702
1000.308117587574
1000
1000
1000.047489904704
1000.458271858828
1000.854643222313
998.7386690259654
1001.057564447281
1000
1000
1000.000124086899
1000
1000
1000
1000.079075454332
1000.722653744642
1001.166508195511
1000.457211141015
996.3580589279831
1000.773260769706
1002.328044060941
1000.197368547048
1001.470136545032
1002.912943494636
1001.513997668811
1000.773260754337
1000.773260778141
997.1029420808694
1002.285307796283
1001.292373931749
1002.159538855283
1000.580710405087
1000
999.0114888066582
997.1029421120579
1002.14285733324
996.9373649314128
1002.104956068188
1000.661198976172
1000.22624773215
1000.157894301251
1000.170160673015
1002.156372320212
1002.285307644282
1009.074328954847
1000
1000.522439386918
1006.804169366735
1023.793221409001
1009.074328929832
1000.077673124749
992.6372171346601
1002.156372389673
1000.170160697853
1000.092187366573
1000.67398480632
1001.9234188754
1000.595214429664
1001.188119500356
1000.22624765145
1000.661198976132
1002.104956116863
998.9366939334383
998.9366939271081
996.9373649615389
1000.923751306447
1001.1593451106
1001.159345107338
997.437087483543
996.6279617180518
999.6901394648352
998.2649820913053
1011.005763264589
1015.603064091322
1000.994793513966
1001.483876305511
1001.117031302508
1002.259374952516
1000.85337253348
1000
1000.580710375362
1002.159538848565
1002.431065608354
1002.026124221461
1001.719948370179
1002.249147230651
1002.471010628399
1001.513997664613
1002.912943492151
1001.470136501238
1002.098423218007
1000.932025074919
1000.972557265281
1000.929208244139
1000.604975541898
1001.166508167193
1000.722653711859
1000.07907544949
1000.783104955374
1000.656378635175
1000.773412967334
1000.662076792258
1000
1000
1000.000124069259
1000
1001.605909109766
1001.301131587303
1001.084318105392
1000.99516042728
1000.854643255161
1000.458271883053
1000.047489911207
1000
1001.440069884596
1000.929699056238
1000.928395073876
1000.768096246067
1000.296477009402
1000.393332508731
1000.417233913095
1000.06135181662
1003.618027552311
1003.618027519946
999.7278930932932
1003.618027567488
1001.541178850213
1005.796447430689
998.0361701930505
998.9795405264583
1000.72027354856
998.8179218093253
995.0258401312187
1003.604446582176
1003.082615609961
995.2220254901531
998.9795405294973
992.0406987558147
1000.720273691864
1001.093815568725
1001.093815517714
974.8096528711966
974.8096529193408
1011.005763158795
1015.603064117344
1001.467019012674
997.102942111025
1000.122448605705
994.3092182560274
1006.838638240705
1006.838638286825
1000.316409777378
1000.669148960028
1000.474241866946
995.8676648492328
1002.168180039286
997.5629703967051
994.9860146677005
995.867664950552
1021.784730684128
1002.168180191276
1000.077673117503
983.0443177415752
1001.541178873701
993.5944980287903
993.5944980363349
1002.967644856483
1004.489944887683
1004.489944864652
998.5849088974055
998.0395541220078
994.3092182624048
1011.596926852363
1002.244458823545
1001.940481410056
1002.357857247895
1004.35271137763
1001.940481261656
998.7713252094474
998.8467587194167
1002.357857359531
998.8467587569673
1002.053121604528
1000.71132480407
1004.489944892453
998.5849081885829
1001.447261403415
1005.336403783907
1001.746228781699
1001.746228816858
1003.357713192833
996.6675722318856
1000.989515696293
1000.260495359705
1002.982196850848
998.8384134406115
998.8384134231585
998.8384134421124
996.541578024331
1001.92965177386
995.986579656342
1001.929651772467
1001.776969524389
1008.288074581512
1008.288074451324
992.6522867333467
999.9642875435449
1010.286670981804
999.7482268352708
995.5729857842038
999.4917858600636
998.7231029806924
999.1941342327143
998.2260110733895
1005.403361657139
998.7231030050749
999.194134249318
1004.761109252939
1001.125706520171
1001.125706452536
1001.443233914569
1000.094492897046
1001.209060136437
999.9604908776427
1002.292823585178
997.8385020439995
999.9604909293098
1000.905992714546
1001.032789651097
1001.279116927101
998.5992302513855
987.7587298822015
1004.761109253062
993.2255134736611
991.386556126183
1006.556775675711
995.0821267971529
1002.73981119958
1004.352711357343
1001.279116868846
1007.929333812107
994.4500382852748
994.9860147560265
997.5629706564606
1000.545678600604
1007.929333906501
1001.235912702629
995.0258402509322
996.3580589949181
999.9219111751994
1000.457211160358
992.6372170350177
1000.923751278096
1018.3207869843
1018.958575488203
1013.332776383016
999.133493277374
1001.057564486825
1000
1002.328044040838
997.5653165218527
1001.923418895257
1000.59521441317
1001.188119597191
997.565316543917
1001.117031204699
1002.259374992181
1000.853372550809
1002.403268033785
1001.719948351777
1002.249147164484
1002.47101063211
999.2070019965166
1000.972557302246
1000.929208316955
1000.604975597606
1000.669148963636
1000.773412924823
1000.662076777573
1000
1001.903074556492
1001.084318100293
1000.995160388315
1002.953634676486
1000.9283950835
1000.768096233968
995.2220255349764
1004.246521307055
1004.246521250417
1004.246521312355
1000.54567856985
997.3373508085464
999.5564580817289
1002.194528479737
999.410517967383
999.9347131420557
999.9347131269463
994.8170221697097
1001.440069881402
1000.929699107459
1001.60590909964
1001.301131573257
994.817022147896
1000.098150541076
1000.098150536371
1001.541178865529
993.1311747689739
1003.618027542377
1001.121310628052
1002.281942706795
996.6527664201569
1000.783104942441
1000.656378593905
995.0897595284758
994.0302179633807
1005.383609508687
1000.13454981189
1002.098423229523
1000.932025074219
1005.498669429447
999.011488812288
989.9415775492386
1005.49866943292
1002.431065609821
1002.026124249727
1004.246521286508
1000.134549808798
999.9642876098837
1000.386872983601
1001.262532450598
1003.204271698803
1000.994793542705
1003.052588653879
1003.052588657775
998.6177646572606
997.6166686262817
994.6543706508077
999.9642875715492
1001.125706473189
998.9024056294134
998.9024057006849
1001.125706512484
1003.20427173476
1001.562797250664
1001.562797257288
997.8524536140261
1000.331675336594
1006.777527589476
1001.730435294889
1000.207343552424
997.4729428891114
993.0149284654841
998.9377867600781
996.2195145964938
994.8170221587537
1002.784962857611
994.6543706348125
995.5607672062771
995.5607672527046
1003.312991638841
1003.312991653669
1000.092187377717
1000.490489457559
1001.425698944044
1001.425698934696
997.8385020277308
1005.498669407924
996.2914218037075
1001.228578821815
995.0897595509563
1002.530542120121
1000.207343550892
996.6279616566397
1000.331675383503
1003.25819135664
1001.262532443883
992.8039254749706
1000.698808151331
998.8485491684635
998.1006347875366
998.1006348029481
997.4900227270909
996.347811815136
996.3478118065241
997.8524536318095
997.1029420763477
1000.610943358212
1000.355323262779
1000.528945425623
1013.396812674232
997.5425062259415
997.5425062568835
995.0897595138682
997.8048568006094
999.3092979639017
990.1763678382802
1000.52894538818
1005.258864027411
1008.808425254618
1008.808425254906
999.7715681460126
998.381823062076
998.3818230420051
1001.032789641343
1001.209060174978
1005.498669416156
1001.279116856754
1001.279116905672
995.0897595498634
1000.087009450962
1003.955582615826
1002.526495544495
1000.332907470436
1003.996542369234
1002.967644869561
1002.526495453266
1004.072271995367
1004.072272085424
1001.776969585654
1001.209060246816
992.4789720098091
988.4717146349413
1005.258864028626
1002.194528473962
1002.088187811047
1003.517195255297
1001.443233914886
1000.35532322549
999.7715680836569
992.8039255013011
997.987526337028
997.987526475277
993.3422815305311
996.2604299840128
994.6543706550782
995.5729859269851
999.4917859456817
1000.087009472671
998.2649820774287
1000.989515676043
999.9642875871829
1000.08700950063
1000.51885831303
1001.436242907811
997.8524536274537
1001.443233906011
1003.735730987392
1003.735730993388
1003.052588646616
1001.730435289237
1002.683759499207
1001.562797239653
1002.589586858775
1002.589586860092
1000.711324821675
1001.131224212096
1001.072991980735
1001.76507151342
998.2649820910696
995.1972633761789
997.8524536374027
998.1331733017198
998.1331733930256
1002.000562969699
1001.562797239424
1001.730435281878
1000.635437506632
995.7525501115898
1003.082615538997
1003.052588658133
999.9604909067762
999.133236445246
1002.856025149955
1002.856025161558
996.2971950226336
1000.094492917685
999.5161643970376
1001.447261431894
1005.258864059192
1000.490489493836
998.7257434684824
998.7257434822977
998.2260111121649
998.2260111277196
994.929263573239
993.0149284684185
998.3054213425097
994.9292635828402
1004.823172152445
997.064547985506
1002.103883893658
998.6177647002014
1000.53722526081
1003.357713248197
992.8039255090148
997.4900227430347
993.3422815001745
999.0794826628595
999.0794826599474
1000.610943360746
1000.610943380872
1005.660739930147
998.5992302444885
1001.425698914536
1001.425698951431
997.115764954964
998.1006347913938
998.1006347851518
1001.312431396255
1001.312431399518
996.3478118116639
996.3478118067455
1006.366933625404
1000.989515702124
1008.808425251277
1008.808425281724
1002.95363472709
1001.9030745805
1001.903074595443
1006.409076371878
1001.093815622027
996.6279615963009
1007.933245213865
998.0157884285211
1007.933245143974
998.0157883572701
988.471714587391
1001.37277475276
1003.082615679908
996.6675723451921
1015.834629569889
1000.308117600684
1000.673984808848
1001.483876299953
1002.026124210894
1000.932025069305
1000.65637863474
1002.982196886516
1001.121310659815
1001.12131070577
1001.37277478606
999.5763444863446
1000.711324869603
999.4917858323788
992.4789720287181
1000.331675448871
996.6279616641788
1003.726644689108
995.5729857978247
1001.093815542771
974.8096527827771
1002.967644854246
998.3257935987214
998.3257936303728
1000.604914929588
1000.604914941518
1000.783104931358
1002.098423216136
1002.431065602586
1000.994793494663
1000.092187360911
1000.698808151439
1013.396812710361
995.2220255096928
1005.336403632205
1006.409076428642
1002.281942726234
1006.556775582614
1002.292823649956
990.1763679936598
991.3865561389437
999.3092979434472
1000.207343567536
1000.207343565126
998.7536802717206
998.7536802495058
1000.077673160653
1002.784962851851
997.9875267066553
997.9875264577632
1004.761109299384
1004.761109324806
1001.436242954879
1005.403361633685
1005.403361684841
994.4500379385215
1002.784962815393
1010.286670957879
1010.286671131523
1000.316409752416
993.5944981957032
993.5944981835003
998.9024057799943
998.9024056668151
999.5161643969426
1006.838638187299
1006.838638265046
978.9675594430836
1011.005763284342
1015.603064046493
1005.79644730875
994.3092182541238
994.309218278647
983.0443178233904
999.7278930992418
1001.467019253145
1000.122448776484
998.0395540650009
992.49921312662
989.9415775176102
1000.609011287985
998.900859900897
1000.609010658057
998.2451019388125
997.2236712768419
1000.312615582842
999.616276700711
997.3864166438958
999.6685861093309
999.6162770052304
994.856491732533
1000.312615492808
1011.00576315829
1004.352711393786
1002.357857343665
1001.940481405125
998.7713253084612
1002.244458813606
1001.940481275393
1002.357857445647
1004.35271136814
997.2236712553141
1015.603064109381
994.9860146812592