<VTKFile type="PolyData" version="1.0" byte_order="LittleEndian" header_type="UInt64">
  <PolyData>
    <Piece NumberOfPoints="2975" NumberOfVerts="2975">
      <Points>
        <DataArray type="Float64" Name="Points" NumberOfComponents="3" format="ascii">
0.03575288295821564 0.01721815961577301 0.03832298802800355
0.03661904820775028 0.02340790523806611 0.02830856839362586
0.08917400059123499 0.07316850919850058 0.02509314384926559
0.08082599940683374 0.07316850920060668 0.02509314384704065
0.08928280570209821 0.06387213250878851 0.02802508093870467
0.08071719429683766 0.06387213250783995 0.02802508093808308
0.08873896671284436 0.05673573850304479 0.03215015815389851
0.08126103328621832 0.05673573850209598 0.03215015815306891
0.08897366277322373 0.04671899638565589 0.04320198273347235
0.08102633722489028 0.04671899638533569 0.04320198273367564
0.07333740625414413 0.04695687667182346 0.04308420044891222
0.1387804712017664 0.1060543209758432 0.08434271736665483
0.06394567902534561 0.03121952879863481 0.08434271736465473
0.08968396127738565 0.06386343891144632 0.01665482650448287
0.08031603871972823 0.06386343890994842 0.01665482650135027
0.08877746780023917 0.05848108936809056 0.02224046113430192
0.08122253219831468 0.05848108936630411 0.02224046113630435
0.08057634714180521 0.04608363523667002 0.03554652540352759
0.07381677501358648 0.04628057891700625 0.03505678353971373
0.06480650273419451 0.04683940765771905 0.03749848147481255
0.1134007302314886 0.04037761864311067 0.07112999247794878
0.1296223813543313 0.0565992697704292 0.0711299924761806
0.08853327561408682 0.05785078983429239 0.01111483182408992
0.08146672438796686 0.0578507898347577 0.01111483182662131
0.08071560856499271 0.04577568221579285 0.0237872086237636
0.07356979744310188 0.04589950761447431 0.02470336309065386
0.06425407215538601 0.04669521429833477 0.0270829990620674
0.08953862746218587 0.02756493406828497 0.06002950197810121
0.03954175777145404 0.04791760148939826 0.05118838001872635
0.04791760149089237 0.03954175777093116 0.05118838001653536
0.1219072385295615 0.05756316552724124 0.06778304168169985
0.1124368344715685 0.04809276146879585 0.06778304168392729
0.0574508504851045 0.05745085048686213 0.04815449357894102
0.02686211633401293 0.01813956416076162 0.05862962246248737
0.08942365285825579 0.04608363523317832 0.03554652540504991
0.08080105990036278 0.03945172291833393 0.06743251260827546
0.08919894009909732 0.03945172291846449 0.06743251260948242
0.0965392818738178 0.06231707440491889 0.06373506485968509
0.07346071812523536 0.06231707441052986 0.063735064863089
0.1076829255887842 0.07346071812458412 0.06373506486648849
0.07233255445884808 0.0396367912659711 0.06732146103700606
0.08054716342307752 0.02697717901282607 0.03723851913991926
0.07289248695390597 0.0387431884816971 0.02466652620405663
0.08934520586762099 0.03813425982576957 0.04077628378512247
0.06478844566895416 0.03923963250982014 0.02655246804594103
0.08056880756677705 0.01838771761647923 0.05424516727163732
0.05677897781719965 0.04063324302013497 0.01171197959655516
0.07160645614976179 0.01778134402609568 0.05565059117697021
0.07227990186075434 0.02658503521885352 0.03869241890922278
0.08251278200723987 0.03040030625807768 0.008969740877526122
0.07996427821786541 0.02910795867686751 0.01145750408045037
0.05659398770084683 0.03895924957865857 0.02953723515624316
0.0976674455419667 0.03963679126669598 0.06732146103684367
0.06529501961071518 0.04182512121380665 0.005927213858999828
0.07258212336138278 0.04207553634891498 0.004045748312280017
0.08081462139484043 0.04287449854556329 0.002114394206107121
0.1303632087337712 0.07233255445723046 0.06732146103683662
0.08940853389043958 0.06206034727496951 0.06326779478643771
0.01813956416282525 0.02686211633711329 0.05862962246197879
0.08044254879798544 0.01881402846072783 0.04476909104012134
0.02844278886084823 0.02844278885906195 0.05590044956032245
0.05012430998682391 0.05012430998141455 0.001879960587155287
0.04489049838639898 0.02762363787036332 0.0331727222929791
0.05507772935288832 0.0251474735957383 0.02981568515132944
0.06293329604986725 0.02652721745586158 0.02634529124717207
0.02805461317705172 0.04582656408080985 0.05375921598026628
0.08928439143694246 0.04577568221713546 0.02378720861757773
0.04511121571401659 0.02669878799540535 0.03974852737337601
0.09666259374712942 0.04695687667344776 0.04308420044701666
0.1230431233252817 0.07333740625292509 0.04308420044780276
0.08059146610904472 0.06206034727396098 0.06326779478512731
0.05068797116536695 0.04198912657349363 0.009507943742982038
0.08042116699956396 0.01831301434952964 0.03502648814666817
0.04582656408233494 0.02805461317803987 0.05375921597632737
0.1123452103993541 0.05765478960038765 0.03846052586254208
0.05754201986489922 0.04782274531344766 0.04808015714010499
0.1213568033622109 0.04864319663685 0.06724426674828449
0.07187820793248111 0.0265890340778362 0.04628106769317536
0.07272364146169275 0.04728595173577053 0.06388494480447966
0.1428900151162382 0.07184542391701773 0.05414044261119862
0.1428149140331522 0.06294980895692515 0.05540803958629995
0.1427243300086494 0.05448442738939566 0.05800074587595981
0.1414417215196274 0.04584090877945645 0.06113631647889615
0.08054864106572102 0.02646882690990033 0.0454808391427091
0.04725957559059148 0.03907764084807472 0.02610189132547
0.1318361674290205 0.07276624821855304 0.0411412876001853
0.05650093654621791 0.04005069636841752 0.02102762593466607
0.0644945664118462 0.04080753547452322 0.01759970755052826
0.08095400263064943 0.04159109366762091 0.01359097940846898
0.07229165466859713 0.04129778484614718 0.01509259092535181
0.122714048262539 0.07272364146202755 0.06388494480477803
0.1307238439817077 0.04821296536204508 0.04292334948155472
0.07149729215261329 0.01808629264314413 0.06434938395578869
0.08056717790374393 0.01822144276693224 0.06320868541457419
0.05490776923529855 0.02534220695481736 0.03676196686622212
0.04854325516283751 0.03923764005531893 0.01914344874764905
0.09727635853855289 0.04728595173672166 0.06388494480435492
0.08091420148309175 0.02358657005667887 0.02269671598915271
0.07319956867124404 0.02233469438374822 0.02486428927516904
0.1131244767818192 0.07342137049748007 0.03310665209449346
0.1055274389326554 0.07372546617901005 0.02883639602192731
0.09663860983346603 0.07336139016383336 0.02616312316703872
0.1124859713737651 0.06521244974992704 0.03475602685150384
0.1052989020094782 0.06470109799393403 0.03089860452548928
0.09627453381939331 0.06447256106758274 0.02883639602314827
0.1047875502482513 0.05751402862484739 0.03475602685165022
0.0965786295001789 0.05687552321492143 0.03310665209369101
0.08090701229593575 0.02578724127591268 0.0304638397089468
0.1237194210818241 0.07381677501397965 0.03505678354254924
0.1119420130014208 0.07408259828879195 0.02316102134209921
0.1053111486942361 0.07487177880939569 0.01765543233345071
0.0958284696507056 0.07417153034966475 0.0145515268023098
0.1231605923390494 0.06480650273281134 0.03749848147579241
0.111708180470865 0.0650857164071367 0.02517063365141399
0.1057086416045804 0.06429135839369431 0.02034930887003703
0.0951282211906187 0.06468885130537705 0.01765543233351123
0.1222153040764557 0.05805838439129975 0.03885384479502062
0.1120586429029743 0.0579413570968088 0.02897979937594732
0.104914283590985 0.05829181952808037 0.02517063365050333
0.09591740171062313 0.05805798699747921 0.023161021343442
0.1221227822628086 0.04787721773313078 0.04805689147684942
0.1119416156077327 0.04778469592264106 0.03885384479519823
0.1051934972674447 0.04683940765925224 0.03749848147514177
0.09618322498506483 0.04628057891478814 0.03505678354131494
0.06352390641386778 0.02570348275606119 0.03358446133922248
0.07280332347037573 0.02525179454197898 0.0319966151420778
0.09701781428189085 0.07298218571558045 0.05915026186674877
0.124100492382858 0.07356979744551789 0.02470336308881178
0.1123187154041712 0.07313608770555688 0.01229829733702521
0.1046020865333271 0.07443641474982136 0.006643453808528158
0.06474218496173877 0.0476926686737396 0.06381145881141273
0.1233047857014391 0.06425407214861295 0.02708299906108117
0.1114642569135063 0.06513740036246519 0.01374124586171338
0.1056654091863248 0.06433459081324359 0.008745789565647408
0.09556358524843259 0.06539791346533 0.006643453809018109
0.1318986450541278 0.06418235361409977 0.03441407606075921
0.1226899755056095 0.0578491149455351 0.03028031705304534
0.111929706679932 0.05807029332053164 0.01875416650479328
0.1048625996349487 0.05853574308569395 0.01374124586263275
0.09686391229195904 0.05768128459552096 0.01229829733640719
0.1220721967703215 0.04792780322963947 0.03869318851229897
0.1121508850506748 0.04731002449619234 0.03028031705495672
0.1057459278478826 0.04669521429774359 0.02708299906253602
0.09643020255514931 0.04589950761316152 0.02470336308808539
0.1223073313246344 0.06474218496137382 0.0638114588131632
0.1052578150388311 0.04769266867472181 0.06381145881309902
0.1317716208095941 0.05659987073653238 0.03760866632276144
0.1314805523422108 0.05607076114439982 0.04584723410251364
0.08109249819331352 0.03855240415242269 0.02355450504067733
0.1225318499950005 0.04746815000438048 0.03093710322623276
0.07172615832335504 0.01780093168454485 0.03733846390985755
0.06280908363199803 0.01727836879208431 0.03989139802919753
0.05333192539661478 0.01765892064654206 0.04377276957183621
0.1294242064462502 0.04057579355161011 0.07144458484462535
0.06397745145514959 0.03095190401796604 0.0009001840491930513
0.07446140391918495 0.03041493830974639 0.002003175665408317
0.05774699202078237 0.02966146917417335 0.007517406483289643
0.0498781010453021 0.03474905877180007 0.004006827907534306
0.03838773323619939 0.02534106328090929 0.02145057404366041
0.08917950201806919 0.03748999079830879 0.03114297435322757
0.08961376943666667 0.02720836293929811 0.05306977649372891
0.08055932088561862 0.01839821230342657 0.0711959547179879
0.07150811008756403 0.01844565074573053 0.07221800023028009
[...]
      <PointData>
        <DataArray type="UInt64" Name="type" format="ascii">
1
1
1
1
1
1
1
1
1
1
1
1
1
1
1
1
1
1
1
1
1
1
1
1
1
1
1
1
1
1
1
1
1
1
1
1
1
1
1
1
1
1
1
1
1
1
1
1
1
1
1
1
1
1
1
1
1
1
1
1
1
1
1
1
1
1
1
1
1
1
1
1
1
1
1
1
1
1
1
1
1
1
1
1
1
1
1
1
1
1
1
1
1
1
1
1
1
1
1
1
1
1
1
1
1
1
1
1
1
1
1
1
1
1
1
1
1
1
1
1
1
1
1
1
1
1
1
1
1
1
1
1
1
1
1
1
1
1
1
1
1
1
1
1
1
1
1
1
1
1
1
1
1
1
1
1
1
1
1
1
1
1
1
1
1
1
1
1
1
1
1
1
1
1
1
1
1
0
1
1
1
1
1
1
0
0
0
0
1
1
1
1
1
1
1
1
1
1
1
1
1
1
1
1
1
1
1
1
1
1
1
1
1
1
1
1
1
1
1
1
1
1
1
1
1
1
0
0
1
1
1
0
0
1
1
1
1
1
1
1
1
1
1
1
1
1
1
1
1
1
1
1
1
1
1
1
1
1
1
1
1
1
1
1
1
1
1
1
1
1
1
1
1
1
1
1
1
1
1
1
1
1
1
1
1
1
1
1
1
1
1
1
1
1
1
1
1
1
1
1
1
1
1
1
1
1
1
1
1
1
1
1
1
1
1
1
1
1
1
1
1
1
1
1
1
1
1
1
1
1
1
1
1
1
1
1
1
0
1
1
0
1
0
1
1
1
1
1
1
1
1
1
1
1
1
1
1
1
0
0
1
1
1
1
1
1
1
1
1
1
1
1
1
1
1
1
1
1
1
1
0
1
1
1
0
0
0
0
0
1
0
1
0
1
1
1
1
1
0
0
1
1
1
1
0
0
1
1
1
1
1
1
1
1
1
1
1
1
1
1
1
1
1
1
1
1
0
0
1
1
0
0
1
1
1
1
0
1
0
1
1
1
1
1
1
1
1
1
1
1
0
1
1
1
1
1
1
1
0
0
0
0
0
1
1
1
1
0
0
1
1
0
0
0
0
0
0
1
1
1
0
1
1
1
1
1
1
1
1
1
1
1
1
1
1
1
1
1
1
1
1
1
0
0
0
0
0
0
0
0
0
0
0
0
0
0
0
0
0
0
0
0
0
0
0
0
0
0
0
0
0
0
0
0
1
1
1
1
1
1
1
1
1
1
1
1
1
1
1
1
1
0
0
0
0
1
0
0
0
1
1
1
1
1
0
0
0
0
1
1
1
1
0
0
0
1
1
1
1
1
1
1
1
1
1
1
1
1
1
1
0
0
0
0
0
0
0
1
1
1
0
0
0
0
0
0
0
0
0
0
0
0
0
0
1
1
0
0
0
0
0
0
0
0
0
0
0
0
0
0
0
0
0
0
0
0
0
1
1
1
1
1
1
1
1
1
1
1
1
1
1
1
1
1
1
1
1
1
1
1
1
1
1
1
1
1
1
1
1
1
1
1
1
0
0
0
0
0
0
1
1
1
1
1
1
0
0
1
1
1
1
1
1
1
1
1
1
0
0
0
0
0
0
0
0
0
0
0
0
0
0
0
0
0
0
0
0
0
0
1
0
0
0
0
0
0
0
1
0
0
0
0
0
0
0
1
0
0
0
1
1
1
1
1
1
1
1
1
1
1
1
1
1
1
1
1
1
1
1
1
1
1
1
1
1
1
1
1
1
1
1
1
1
1
1
1
1
1
1
1
1
1
1
1
1
1
1
1
1
1
1
1
1
1
1
1
1
1
1
1
1
1
1
1
1
1
1
1
1
1
1
1
1
0
0
0
0
1
1
0
1
1
1
1
1
1
1
1
1
1
1
1
1
1
1
1
1
1
1
1
1
1
1
1
1
1
1
1
1
1
1
1
1
1
0
1
1
0
0
1
1
1
1
1
1
1
1
1
1
1
1
1
1
1
1
1
1
1
1
1
1
1
1
1
1
1
1
1
1
1
1
1
1
1
1
1
1
1
1
1
1
1
1
1
1
1
1
1
1
1
1
1
1
1
1
1
1
1
1
1
1
1
1
1
1
1
1
1
1
1
1
1
0
0
0
0
0
0
0
0
0
0
0
0
0
0
0
0
1
0
0
1
0
0
0
0
0
0
0
0
0
0
0
0
0
0
0
0
0
0
0
0
0
0
0
0
0
0
0
0
0
0
0
0
0
0
0
0
0
0
1
1
1
1
1
1
1
1
1
1
1
1
1
1
1
1
1
1
1
1
0
0
1
1
1
0
1
1
0
0
1
1
1
0
0
0
0
0
1
1
1
1
0
1
1
1
1
1
0
1
1
1
1
1
1
1
1
1
1
1
1
1
1
1
1
1
1
1
1
1
0
1
1
1
0
1
1
1
1
1
1
1
1
1
1
1
1
1
1
1
1
1
1
1
1
1
1
1
1
1
1
1
1
1
1
1
1
1
1
1
1
1
1
1
1
1
1
1
1
1
1
1
0
0
0
0
0
0
0
0
0
1
1
1
1
1
1
1
1
1
1
1
1
1
1
1
1
0
0
0
0
0
0
0
0
0
1
1
1
1
1
1
1
1
1
1
1
1
1
1
1
1
1
1
1
1
1
1
1
1
1
1
1
1
1
1
1
1
1
1
1
0
0
0
0
0
0
0
0
0
1
1
1
1
1
1
1
1
1
1
1
1
1
1
1
1
1
1
1
1
1
1
1
1
1
1
1
1
1
1
1
1
1
1
1
1
1
1
1
1
1
1
1
1
1
1
1
1
1
1
1
1
0
0
0
0
0
0
1
1
1
1
1
1
1
1
1
1
0
0
0
0
0
0
0
0
0
0
0
0
0
0
0
0
1
1
1
1
1
1
0
0
0
0
0
0
1
1
1
1
1
1
1
1
1
1
1
1
1
1
1
1
1
1
1
1
1
1
1
1
1
1
1
1
1
1
1
1
1
1
1
1
1
1
1
1
1
1
1
1
1
1
1
1
1
1
1
1
1
1
1
1
1
1
1
1
1
1
1
1
1
1
1
1
1
1
1
1
1
1
1
1
1
1
1
1
1
1
1
1
1
1
1
1
1
1
1
1
1
1
1
1
1
1
1
1
1
1
1
1
1
1
1
1
1
1
1
1
1
1
1
1
1
1
1
1
1
1
1
1
1
1
1
1
1
1
1
1
1
1
1
1
1
1
1
1
1
1
1
1
1
1
1
1
1
1
1
1
1
1
1
1
1
1
1
1
1
1
1
1
1
1
1
1
1
1
1
1
1
1
1
1
1
1
1
1
1
1
1
1
1
1
1
1
1
1
1
1
1
1
1
1
1
1
1
1
1
1
1
1
1
1
1
1
1
1
1
1
1
1
1
1
1
1
1
1
1
1
1
1
1
1
1
1
1
1
1
1
1
1
1
1
1
1
1
1
1
1
1
1
1
1
1
1
1
1
1
1
1
1
1
1
1
1
1
1
1
1
1
1
1
1
1
1
1
1
1
1
1
1
1
1
1
1
1
1
1
1
1
0
0
0
0
1
0
0
1
1
0
1
1
1
0
1
1
0
0
1
0
1
1
1
1
1
1
1
1
1
1
1
1
1
1
1
1
1
1
1
1
1
1
1
1
1
1
1
1
1
1
1
1
1
1
1
1
1
1
1
1
1
1
1
1
1
1
1
1
1
1
1
1
1
1
1
1
1
1
1
1
1
1
1
0
0
0
0
0
0
0
0
0
0
0
0
0
0
0
0
0
0
0
0
0
0
0
0
0
1
1
1
1
1
1
1
1
1
1
1
1
1
1
1
1
1
1
1
1
1
1
1
1
1
1
1
1
1
1
1
1
1
1
1
1
1
1
1
1
1
1
1
1
1
1
1
1
1
1
1
1
1
1
1
1
1
1
1
1
1
1
1
1
1
1
1
1
1
1
1
1
1
1
1
1
1
1
1
1
1
1
1
1
1
1
1
1
1
1
1
1
1
1
1
1
1
1
1
1
1
1
1
1
1
1
1
1
1
1
1
1
1
1
1
1
1
1
1
1
1
1
1
1
1
1
1
1
1
1
1
1
1
1
1
1
1
1
1
1
1
1
0
0
0
0
0
0
0
1
1
1
1
1
1
1
1
1
1
1
1
1
1
1
0
0
0
0
0
0
0
1
1
1
1
1
1
1
1
1
1
1
1
1
1
1
1
1
1
1
1
1
1
1
1
1
1
1
1
1
1
1
1
1
1
1
1
1
1
1
1
1
1
1
1
1
1
1
1
1
1
1
1
1
1
1
1
1
1
1
1
1
1
1
1
1
1
1
1
1
1
1
1
1
1
1
1
1
1
1
1
1
1
1
1
1
1
1
1
1
1
1
1
1
1
1
1
1
1
1
1
1
1
1
1
1
1
1
1
1
1
1
1
1
1
1
1
1
1
1
0
0
0
0
0
0
0
1
1
1
1
1
1
1
1
1
1
1
1
1
1
1
1
1
1
1
0
0
0
0
1
1
1
1
1
1
1
1
1
1
1
1
1
1
1
1
1
1
1
1
1
1
1
1
1
1
1
1
1
1
1
1
1
1
1
1
1
1
1
1
1
1
1
1
1
1
1
1
1
1
1
0
0
1
1
1
1
1
1
1
1
1
1
1
1
1
1
1
1
1
1
1
1
1
1
1
1
1
1
1
1
1
1
1
1
1
1
1
1
1
1
1
1
1
1
1
1
1
1
1
1
1
1
1
1
1
1
1
1
1
1
1
1
1
1
1
1
1
1
1
1
1
1
1
1
1
1
1
1
1
1
1
1
1
1
1
1
1
1
1
1
1
1
1
1
1
1
1
1
1
1
1
1
1
1
1
1
1
1
1
1
1
1
1
1
1
1
1
1
1
1
1
1
1
1
1
1
1
1
1
1
1
1
1
1
1
1
1
1
1
1
1
1
1
1
0
1
1
1
1
1
1
1
1
1
1
1
1
1
1
1
1
1
1
1
0
0
1
0
1
1
1
1
0
0
0
0
1
0
0
0
0
0
0
1
1
1
1
1
0
0
0
0
0
0
0
0
0
0
0
0
0
0
0
0
0
0
0
0
0
0
0
0
0
0
0
0
1
1
1
0
0
0
1
1
0
0
0
0
0
1
1
0
0
0
1
1
0
1
1
1
0
1
1
0
1
0
0
1
1
1
1
1
1
1
1
1
1
1
1
1
0
1
1
1
1
1
1
1
1
1
0
0
1
0
0
1
1
1
1
1
0
0
0
0
0
0
1
1
1
1
1
1
1
1
1
1
1
1
1
1
1
0
1
1
1
0
0
0
0
1
0
0
0
0
0
0
0
0
0
0
0
0
0
0
0
0
0
0
0
0
0
0
0
0
0
0
0
0
0
0
0
0
0
0
0
0
0
0
0
0
0
0
0
0
0
0
0
0
0
0
0
0
1
1
1
1
1
0
1
1
1
1
1
1
1
1
1
1
1
1
1
1
1
1
1
1
1
1
1
1
1
1
1
1
1
1
1
1
1
0
1
1
1
1
1
1
1
1
1
1
1
1
1
1
0
1
1
1
1
1
1
0
1
1
1
1
1
1
1
1
1
1
1
1
1
1
1
0
1
1
1
1
1
1
1
1
1
1
1
1
1
1
1
1
1
1
1
1
1
1
1
1
1
1
1
1
1
1
1
1
1
1
1
1
1
1
1
0
0
0
0
0
0
0
0
0
0
0
0
0
0
0
0
1
1
1
1
1
0
0
1
1
1
1
1
1
1
1
1
1
1
1
1
1
1
1
1
1
1
1
1
1
1
1
1
1
1
1
1
1
1
1
1
1
1
1
1
1
1
1
1
0
1
1
1
1
1
1
1
1
1
1
1
1
1
1
1
1
1
1
1
1
1
1
1
1
1
1
1
1
1
1
1
1
1
1
1
1
1
1
1
1
1
1
1
1
1
1
1
1
0
0
1
0
0
0
0
0
0
0
0
0
0
0
0
0
0
0
0
0
0
0
0
0
0
0
0
0
0
0
0
0
0
0
0
0
0
0
0
0
0
0
0
0
0
0
0
0
0
0
0
0
0
1
0
0
0
0
0
0
1
0
0
0
0
1
1
1
1
0
0
0
0
0
0
0
0
0
0
0
0
1
0
0
0
0
0
0
0
1
1
0
0
1
0
0
0
0
0
0
0
1
1
1
1
1
1
1
1
1
1
1
1
1
1
1
1
1
1
1
1
1
0
1
1
1
1
1
1
1
1
0
1
0
0
0
0
0
1
1
0
1
1
1
1
0
1
0
0
0
0
0
1
1
1
1
0
1
1
1
0
1
1
1
1
1
1
1
1
1
0
1
0
1
1
0
0
1
1
1
0
0
0
1
1
1
0
1
1
1
1
1
1
1
0
0
0
0
0
0
1
1
1
1
1
0
0
0
0
0
0
1
1
1
1
1
0
0
0
0
0
0
0
1
1
1
1
1
1
1
1
1
0
0
1
1
1
1
1
1
1
1
1
1
1
1
1
1
1
1
1
1
1
1
1
1
1
1
1
1
1
1
1
1
1
1
1
1
1
1
1
1
1
1
1
1
1
1
1
1
1
1
1
0
1
1
1
1
1
1
1
1
1
1
0
1
1
1
1
1
0
1
1
1
1
1
1
1
1
1
1
1
1
1
1
1
1
1
1
1
1
1
1
1
1
1
1
1
1
1
1
0
0
0
0
0
0
        </DataArray>
        <DataArray type="Float64" Name="density" format="ascii">
997.223671319899
1009.074328975228
998.93778676817
998.9377867649547
1005.383609497543
1005.383609493887
995.0897595253468
995.0897595296221
1003.618027542273
1003.618027560525
1001.541178877453
996.1257005007985
996.1257005271707
1003.052588641347
1003.052588641349
1000.386872966889
1000.386872973504
1004.246521286851
1005.498669449893
1007.929333876326
997.3373508005296
997.3373507458094
1001.7304352766
1001.730435272689
1001.562797210557
1003.204271759975
1007.828265802299
1003.258191321495
999.9347131465347
999.9347131538116
999.4105179075033
999.4105179363229
997.8510407852079
998.8467587140481
1004.246521280016
994.0302179470738
994.0302179269867
1001.26253246428
1001.262532441636
1001.262532433158
997.5425062263715
1004.072272018646
992.8039254999826
1001.125706500087
993.225513484248
997.1029421289256
1006.556775588284
996.3580590022582
1002.526495472448
996.6279616034395
1001.093815613181
987.7587298717438
997.5425062038016
991.3865561922057
998.5992302389448
998.0157883998963
997.5425062420262
1003.955582611598
998.8467587554104
999.4567204868279
999.9942338614183
999.3092979571215
1004.761109278276
1005.40336165245
1010.286671131685
1002.856025170328
1001.56279722543
1003.312991612104
1001.541178847963
1001.541178872935
1003.955582610661
997.9875264837294
995.5729858156026
1002.856025157008
992.652286726888
1002.124238388341
1000.557099267737
1001.209060169609
1003.735730977717
1000.355323227842
1001.443233901919
1002.194528465138
1000.899114932615
1001.279116900033
1000.14842003466
999.9642875498243
995.0821267717799
1002.73981121526
1008.808425248051
1005.258864064519
1003.735730980865
998.2260110635045
999.771568143814
998.3818230610761
997.8385020062996
998.9366939115411
1003.735730971211
1006.409076432863
1006.366933587174
994.8170221594223
1002.784962835135
996.219514614154
997.5653165361775
1004.82317215755
1002.784962836761
997.5653165240445
994.8170221473345
1007.933245138276
1005.498669410845
996.2914218215421
998.3054213387937
993.0149284732479
1007.929333844702
1001.521051274629
1003.643878318766
998.3054213290483
999.960490889003
993.4364133655164
1001.521051260926
996.2914218179983
1002.53054213273
999.9604909018394
1007.929333864712
1005.498669428225
1002.292823626734
1005.660739940481
1002.683759486757
1003.204271737506
998.6177646723565
1002.103883875648
1002.589586839337
1007.828265794224
1002.579002360746
1001.145036758041
1002.103883899505
996.2604299969494
1002.421519865646
999.5243316806142
1002.579002367125
998.6177646974303
1002.953634655944
1002.421519828766
1007.82826578507
1003.204271767707
1002.589586827218
1002.589586829879
993.3422815389664
998.2649820794315
998.1006347455889
1012.393273926968
999.4917858753926
998.7231029722018
999.1941342102887
1000.195058945456
1002.053121570037
1000.711324881782
998.584908186829
995.986579589611
1008.288074607333
995.5607672193321
1000.528945438399
1000.669148941583
1001.03278961202
1002.124238395331
1000.077673142152
1001.131224207088
1001.131224208082
1001.765071489968
1001.765071502129
1000.989515680893
999.9347131535027
994.9860146614038
997.5629704218301
1002.168180123362
999.690139482749
999.6901394275781
1000.077673126898
1000.308117599385
996.3580589480911
999.6262714258477
994.6543706587686
995.5607671984766
994.6543706262593
1002.530542131793
1001.057564468398
1000
1002.328044012183
1002.285307731757
1000.635437506654
1004.352711442665
1002.357857367957
1000.720273510739
998.8179217821707
995.0258401255995
1000.635437486693
995.7525500880599
1003.238160542823
1003.604446602315
1004.104482712513
1003.082615667396
995.222025492226
997.0645479901237
999.4874502301752
1000.332907451625
1000.332907456748
1002.845509224884
1003.996542367026
1003.996542377752
1002.856025181951
1000.260495327221
1001.425698918915
1000.490489453555
1000.490489480759
1001.032789617721
1002.967644881356
987.758729929687
1007.484574655148
993.2255134818705
999.9347131635221
1001.77696957142
992.8039254667078
1001.209060198449
997.1403405578983
997.1403405617056
1005.823138277955
998.26498208104
1000.226247641258
1001.188119458741
1000.989515696438
999.9642875835149
997.9304740712146
1000.595214420262
1001.923418841556
1003.517195336405
1003.517195297039
998.7386690622625
1000.148420138212
1002.088187879743
1002.088187871699
996.3478118008774
997.4900227259639
997.4900227507902
1002.403268008411
995.0821267946764
999.2070020636929
1002.739811184603
1005.258864011691
998.2260110397817
999.9219111826387
1000.209461934145
998.2451019129868
998.7386690739683
1000.457211157618
1002.52649549866
998.8918095083631
989.9415775322282
992.4992133147688
993.3422814890132
996.2604299997162
994.6543706828048
1000.899114971123
1000.087009484704
999.7715681010188
996.2971949701633
1002.194528471988
1004.576866327331
1000.134549813677
1003.432139391856
1000.134549835032
1000.209461972786
1000.905992723262
1000.209461974992
996.6675723002257
1000.209461959624
998.848549177496
1005.336403636875
999.7715681218588
996.9373649527403
998.26498207835
1004.072272046775
1002.845509160143
987.7587298670168
993.2255135017409
992.8039255472919
998.1006347779371
998.3818230420359
998.264982083589
1003.042500260092
1003.042500262417
1000.094492898857
1000.094492876962
1001.447261424664
1001.447261427265
998.7257434599385
998.7257434727211
998.725743461525
994.9292635739389
994.9292635789866
994.9292635642714
1003.357713223403
1003.357713188893
1003.357713222959
1000.537225245195
1000.53722523828
997.115764934228
997.1157649345295
1001.541178886866
1002.96764485057
1002.967644851977
1001.312431394869
1001.312431372705
1001.312431393788
1001.903074566282
1001.903074559535
1001.903074573106
1002.98219683396
1002.982196860788
1001.121310675301
1001.121310637597
1001.121310682434
999.5763444516983
999.5763444866674
1003.726644681985
998.3257936265736
998.3257936380686
998.3257935762133
1000.604914926986
1000.60491493078
1001.436242915851
1001.436242944396
998.9024056394609
998.9024057253238
996.2971950174375
1002.15849845991
1002.158498456545
996.2973147274575
1001.746228800829
1000.673984814246
1002.526495507029
1001.746228815712
1001.440069873988
999.1334932839613
1000.92969904818
999.7054096584378
999.7054096578025
1004.030440195662
1001.072991980421
997.4900227398597
1000.148420090053
995.0821267725961
1002.739811217482
1001.072991947898
1005.258864067651
1008.808425250333
1001.443233894795
1000.355323226629
996.3478117988498
999.7482268643965
1001.605909118007
1001.301131573163
999.7482268198621
1002.856025189811
1002.967644862166
997.8510407715067
1001.776969540895
1001.209060189872
1001.279116923214
1000.989515695216
999.6262714060142
999.6262714026765
1002.403268010375
999.9219111647404
1000.457211150065
999.626271399319
1002.088187846972
1000.518858344593
1006.777527634048
1000.33167540665
1000.669148947107
992.6372171314326
1000.783104968554
999.4874502037844
1000.518858314091
1000.260495357698
1000.656378621306
1000.773412961778
1000.662076798102
1000
1000
1000.537351168833
1002.098423223823
998.8918094834133
1000.932025083546
1000.537351162693
999.207002009589
1000.087009503428
1001.032789648965
996.5415780293159
1000.9725572564
1000.929208249354
1001.776969560793
1004.104482704081
1000.773260764891
1001.776969539507
1000.929699068795
1001.301131563452
999.412538305057
999.4125382936328
998.145934215099
998.1459341330763
999.5161643948736
996.6527664575138
996.6527664083501
993.1311748516051
993.1311748117654
992.4789720390291
999.9942339146137
988.47171460173
1007.923635474923
1007.923635329889
998.9366938614079
998.9366938081394
1001.159345055691
1006.556775723091
1006.556775655968
993.3422814956399
1000.994793504083
1000.656378608037
1005.796447322731
991.386556114615
1000.092187365544
1013.396812719521
991.3865561641808
1000.31261555066
1000.312615544912
998.5992302382434
1000.932025077976
998.5992302681697
1000.698808153634
998.0157883985696
999.9642876193834
1003.312991602065
1003.312991593598
999.3092979290226
990.1763680342334
992.6522867302366
998.2260110912067
998.226011099126
1001.209060236773
999.9604908863585
1000.5224394913
999.9604908998168
1007.929333841537
1000.923751301501
1000.923751269072
997.5653165270759
1002.403268018242
1002.403268003769
1000.994793511678
1001.483876300326
1001.117031278359
1002.25937501036
1000.853372532586
1002.953634683006
1000.474241841003
994.8170221747566
1005.498669441263
1000.604975554838
1001.1665081734
978.9675593245468
998.5834164482491
1002.431065602647
1002.026124219401
1001.719948378705
1002.249147243986
1002.471010625169
1001.513997675483
1003.258191348896
1000.773260762638
1004.489944876249
1015.834629582778
1002.2819427001
1002.784962839952
1002.784962854807
1004.576866377118
999.9219111459583
999.9219111501461
1001.159345101074
1001.159345115926
996.2604299838841
996.2604300019468
996.2195146146702
997.4370874687989
997.4370874276879
993.4364133491496
994.6543706830769
1002.421519818413
1002.421519845403
1002.845509167439
1002.845509148583
1001.521051248795
998.5834164615378
1000.928395079432
1000.768096263002
1000.29647704275
1000.393332524775
1000.417233909824
1000.061351814529
1000
1001.084318088485
1000.995160420225
1000.854643250587
1000.458271881486
1000.04748990869
1000
1000
1000.773412958784
1000.662076820856
1000
1000
1000.000124061035
1000
1000
1000.972557312339
1000.92920830598
1000.604975573333
1001.166508183994
1000.722653699773
1000.079075420766
1000
1001.719948363422
1002.249147225778
1002.471010641441
1001.513997686884
997.223671302662
997.2236712487565
998.245101925446
998.2451018768709
992.4992132808754
989.9415775631783
989.9415775157219
992.499213178756
1005.336403667682
996.6675723048157
994.8564917570875
1001.383454603565
1001.383454614149
999.0167959814896
997.8385020557145
997.8385020451265
1001.467019187558
1000.661198964876
1000.226247635222
1001.188119455554
1000.595214406527
999.016795994578
1001.923418883485
1000.673984792085
1000.092187366302
1000.609011244056
1002.292823613062
1002.292823645584
999.6162768214447
997.3864166789682
1002.156372405875
1002.285307694755
1002.328043958936
1000
1004.35271132542
1002.357857442893
1001.940481356929
998.771325326023
1001.057564464876
1000.308117585047
1000.698808150107
994.9860147303281
997.5629704730916
1002.168180219432
995.8676648683881
1021.784729361113
1005.660739947126
995.2220254452279
1003.082615654114
1003.604446632206
995.0258401554664
998.8179218384388
1000.720273480237
998.9795405471034
992.040698736137
1005.6607399698
1006.804169441971
1023.793221384082
1013.332776355796
1018.958575507861
1018.320787007235
1015.834629568395
1013.396812715418
994.3092182412779
1000.457211128065
1000.457211154092
1000.417233906165
1000.393332515825
1000.296477024323
1000.768096240111
1000.928395073709
1000.929699086455
1001.440069884834
1000.04748990587
1000.458271875619
1000.854643244204
1000.995160418125
1001.084318113685
1001.301131588742
1001.6059091168
1000.07767312627
994.309218256026
1000.000124068198
1000
1000
1000.662076780944
1000.773412950971
1000.656378627959
1000.78310496771
1000.722653682962
1001.166508175828
1000.604975560585
1000.929208230212
1000.972557250295
1000.93202506571
1002.098423226349
1002.912943555298
1001.51399771652
1002.47101066894
1002.249147246159
1001.719948352619
1002.026124197434
1002.431065597308
1002.053121627541
998.5849087783943
995.9865791960002
998.9024057134399
1000.545678654414
999.1941342861089
999.7278930831689
998.7231029856612
1000.122448764544
999.1941342710253
998.0395540737816
1008.288074538268
998.9008598892719
1000.609010824634
998.5849084791103
999.6685861282126
999.6162769035178
995.5729858582283
1002.244458829862
1001.940481240695
1002.357857445999
1004.352711405521
1000.54567863292
1000.474241843983
995.8676648550115
1002.168180230365
997.5629705748685
994.9860146786641
998.036170178583
998.97954051744
1000.720273491737
998.8179219299735
995.0258401955315
1003.604446573402
1007.933245156357
1000.077673144007
1000.580710418989
1000
1018.320786978725
1018.958575490118
1013.332776368677
1023.793221332082
996.9373649646524
996.9373649416431
1012.393273900834
996.2914218258004
996.9373649367259
999.1332364321165
1001.483876308833
1001.117031306454
999.1332364359081
1000.545678621114
1000.545678572477
1007.828265758728
1002.52649555929
1003.643878322119
999.1332364499495
1000.516736072057
1000.675342521894
1003.204271735436
1000.061351813907
1000
1000
1000.07907541226
1001.470136557977
1002.159538912856
1002.104956145757
1000.170160694681
1000
1000.522439451456
1006.804169444423
1023.793221425839
1013.332776363985
1018.95857553409
1018.320787017078
1000.157894303432
1000.170160688991
1002.156372342351
1002.285307605496
1002.328043949108
1000
1001.057564509367
995.9865794437967
1002.142857364485
1002.104956109539
1000.6611989518
1000.226247644578
1001.188119478051
1000.595214409392
1001.923418881713
1008.28807459553
1001.29237397164
1002.159538891142
1000.580710376744
1000
1000.85337252202
1002.259374956074
1001.117031247695
997.8048567572325
1000.197368554726
1001.470136564456
1002.912943520231
993.5944982318299
993.5944981948513
983.0443178565831
1002.053121596377
1000.316409755045
978.9675593490883
996.6279616000272
1000.331675440703
992.637217064424
1001.093815594455
974.8096528983169
998.5834164265792
1006.838638216511
1006.838638262159
1001.020017410436
997.9875266734502
1000.923751274434
1000.923751312161
999.4567204939131
998.7231030268217
997.4370874789067
1006.777527498454
1015.603064102961
1015.60306404956
998.1331733496974
978.9675594364031
992.6372170352714
1006.77752753298
1011.596926884769
1011.005763303375
1011.005763220013
999.4917858817255
1000.711324905732
998.902405703594
998.8467587510153
998.8467587518136
997.9875264985878
1001.159345046416
997.4370874108092
999.3067610161021
999.3067609859825
1000.207343555363
997.4729429134059
1000.207343555133
997.4729429130703
996.3580589612158
1002.281942733763
998.1331733224706
1001.372774770418
996.35805896672
997.1029421035562
1001.372774773772