<VTKFile type="PolyData" version="1.0" byte_order="LittleEndian" header_type="UInt64">
  <PolyData>
    <Piece NumberOfPoints="1609" NumberOfVerts="1609">
      <Points>
        <DataArray type="Float64" Name="Points" NumberOfComponents="3" format="ascii">
0.07373252580914748 0.07183851614313685 0.01961574776703206
0.06167249669996148 0.04765175482946814 0.01574033660607703
0.05115956906558018 0.06712836415356473 0.02713294516082369
0.06875100596761065 0.04848629157634424 0.01549073340316493
0.02493138068366962 0.107056243602841 0.01456720466610891
0.04284214284277312 0.0428421428568466 0.03412067362026405
0.05600864822053402 0.06905377044326416 0.001020146014680514
0.06342755301718472 0.04648871918562253 0.004858748910404714
0.04982827341413567 0.04629342446256818 0.0006304994270626859
0.05457536250276125 0.04808104795637907 0.01174050345406252
0.0555860625558305 0.06856625439997988 0.02155458599474415
0.03600576720245115 0.04631293839756127 0.01607896140831614
0.04553587024306492 0.07133837951314805 0.02122253615601336
0.04608798005938015 0.05371143107011369 0.05328241024779568
0.03819574754158245 0.04721495625533868 0.05597744300418691
0.03150444372493146 0.06837056372299323 0.03157997086294657
0.06337516387300852 0.05186161585376164 0.05628001354352565
0.02806276242775289 0.0962700552706043 0.01031981679181273
0.02668137811464876 0.07629336024807852 0.01702656511120261
0.02615688615692867 0.07163674652443089 0.01319748752381599
0.05371143104318397 0.04608798007214124 0.05328241026064565
0.05337414479811765 0.05337414480474686 0.06071422613437439
0.02747649273228172 0.07600885678556556 0.0211763437309791
0.04272980521312036 0.07380657600296564 0.009460480155569682
0.008186842105263157 0.07144473684210526 0.1042884615384616
0.008186842105263157 0.07144473684210526 0.09552692307692309
0.008186842105263157 0.07144473684210526 0.08676538461538462
0.06975140729415996 0.07981908801035612 0.02101533136319522
0.05339603848737138 0.0733832717656855 0.02216114818633639
0.02869499233352567 0.07631085357473032 0.02846952472179724
0.03307065461331192 0.07114419905489985 0.03631597329566976
0.04192874998845748 0.04953933485646118 0.05571022117274327
0.06000715891684191 0.05080039235680155 0.05116672793941662
0.05080039233651071 0.06000715893777141 0.05116672794909011
0.03475984150206309 0.07112358539928139 0.03822096446002911
0.05209920355886571 0.05209920353625042 0.05545492214938951
0.06279408732016065 0.06279408732526516 0.05342588868001257
0.03072202243818038 0.08877636418143105 0.005676992599011051
0.03072202253633667 0.08122363585425756 0.005676992400692953
0.03591330485457256 0.1063899572551446 0.03710443402448622
0.04747940340407096 0.04747940340560994 0.0584531617821592
0.05724307301515553 0.0572430730014408 0.05281295220189402
0.05186161586494632 0.06337516384111945 0.05628001353489155
0.0387970145300611 0.07332841714911467 0.04056433895318326
0.0390275120060436 0.07865651979482548 0.03947590501576881
0.05186161584338354 0.1066248361363047 0.05628001353779156
0.02186296484040624 0.1145063911993606 0.01929567288805864
0.07183851606181796 0.07373252573310193 0.01961574775315376
0.06804112973516219 0.07662792568462361 0.02851290868670423
0.05724307303229213 0.1127569269645178 0.05281295217398833
0.05080039233460661 0.1099928410712763 0.05116672793658381
0.06279408732790931 0.1072059126805444 0.05342588867304127
0.03324969262627469 0.07725213729763677 0.03724184549944449
0.04669801594672877 0.07108283085675447 0.003854762004865141
0.02883657541981575 0.07027388325533894 0.02697558125912571
0.05419606374919916 0.1060785498630958 0.04419351762427816
0.03087082851800725 0.07669384069735272 0.0342767350415643
0.05705205515741996 0.1129479448673453 0.04043689415541856
0.05841872353593239 0.07378854179688869 0.01163798144890466
0.05760386974590431 0.07050278560617132 0.005765978956580392
0.0482346793184926 0.07288072778724046 0.03098848772242255
0.0695337928051141 0.1093741798071366 0.05017019482632019
0.02908762876639359 0.1051110367836921 0.01074263412121848
0.04241814702716236 0.1143798062506372 0.04784853022647872
0.04821757106488286 0.07808146031737702 0.02797285066809066
0.04315316937989846 0.07623206207165209 0.02407801400204455
0.07145075649263365 0.1041757976181359 0.04424602925807532
0.008186842105263157 0.07144473684210526 0.007911538461538463
0.008186842105263157 0.07144473684210526 0.01667307692307693
0.008186842105263157 0.07144473684210526 0.02543461538461539
0.04989390940911849 0.1046436523205642 0.03949166895269513
0.02979323992099002 0.09894134341105915 0.007252585061488484
0.008186842105263157 0.07144473684210526 0.03419615384615385
0.008186842105263157 0.07144473684210526 0.04295769230769231
0.008186842105263157 0.07144473684210526 0.05171923076923078
0.008186842105263157 0.07144473684210526 0.06048076923076924
0.05177959961072112 0.1106867056288013 0.03464052041179235
0.03274681607182853 0.07214429815032698 0.002342935735890189
0.008186842105263157 0.07144473684210526 0.07800384615384616
0.008186842105263157 0.07144473684210526 0.0692423076923077
0.04018883480002922 0.110529718862872 0.04301880908646102
0.04975308601285904 0.06942915199731686 0.05300180311408627
0.03228928427025935 0.08920773996068497 0.001962553511531557
0.06942915199068125 0.04975308597513026 0.05300180314901128
0.07108283087731961 0.04669801596600267 0.003854761977191364
0.04975308596160826 0.1005708480169778 0.0530018031525929
0.02979323977591436 0.07105865678817483 0.007252585082478728
0.03228928426331992 0.08079226010776673 0.001962553436851224
0.03987085212709238 0.1029260250268544 0.04165074789617798
0.008186842105263157 0.116628947368421 0.1042884615384616
0.008186842105263157 0.1075921052631579 0.1042884615384616
0.03373594239664243 0.04713258588214758 0.002933868510681041
0.008186842105263157 0.08048157894736842 0.0692423076923077
0.008186842105263157 0.08048157894736842 0.07800384615384616
0.05423672647899334 0.1097853657364342 0.03003534675881823
0.06021463432662559 0.1157632735196304 0.0300353467759246
0.03737246642477032 0.1061913332830312 0.03937629736288591
0.008186842105263157 0.1075921052631579 0.08676538461538462
0.03733917475188366 0.1133276257406663 0.03460985476169415
0.008186842105263157 0.116628947368421 0.08676538461538462
0.008186842105263157 0.116628947368421 0.09552692307692309
0.04830248056365842 0.1068481388373033 0.04594056715180349
0.02806276251777813 0.07372994480118074 0.01031981664457932
0.008186842105263157 0.1075921052631579 0.0692423076923077
0.0557879130754418 0.1058548108308036 0.0008096959453264093
0.008186842105263157 0.116628947368421 0.0692423076923077
0.06062582018861269 0.06953379280427142 0.05017019483193324
0.02837870110885999 0.08873086080480889 0.01016246207605047
0.05600864832772394 0.1009462295629784 0.001020145945172335
0.02869499229864988 0.09368914644517883 0.02846952472553339
0.008186842105263157 0.1075921052631579 0.07800384615384616
0.008186842105263157 0.116628947368421 0.07800384615384616
0.05419606369054791 0.06392145014955238 0.04419351763344091
0.06953379280484749 0.06062582021062311 0.05017019482978904
0.04608798008609325 0.1162885689353588 0.05328241020955975
0.008186842105263157 0.1075921052631579 0.09552692307692309
0.06856625437353395 0.05558606257571081 0.02155458587492025
0.06392145016473738 0.05419606370611291 0.04419351765846392
0.06062582021702838 0.1004662071970829 0.05017019483528785
0.02662303522040248 0.05708318045340526 0.02538965215878707
0.03637898948579039 0.04593448158461991 0.02114406395008575
0.0286250991824063 0.04347172073127627 0.03314842306490783
0.04706113960260805 0.0581987108006681 0.02032426199272061
0.02911815479512074 0.1130883678563568 0.01180110393925265
0.0338321271534533 0.1119512648454652 0.003634368982154795
0.02344158210745866 0.1135823350992408 0.016661594220274
0.03591330489609603 0.06361004278112002 0.03710443400508324
0.03215820890036186 0.1056603888837367 0.006634704639402344
0.03596912787176471 0.1135024324313812 0.0004610649232160446
0.04648871907728353 0.1065724470020193 0.004858749134845987
0.04823467933813214 0.09711927217505889 0.03098848775001838
0.04246507650206932 0.06651594739960866 0.02266675463707421
0.0557879130920025 0.06414518904224784 0.0008096960593651907
0.04403993753987832 0.05176078970323913 0.01650184939959611
0.02615688615503501 0.09836325347513834 0.01319748760220025
0.06015657326927949 0.09033673713262444 0.008499491062653993
0.02897114962844947 0.08791191185965515 0.02291995309372435
0.03489430471528735 0.04739817476504185 0.03911484842392611
0.04272980517479172 0.09619342387048853 0.009460480410920279
0.03131699594788073 0.04333125621880603 0.03989639107148527
0.04848629164273068 0.06875100589670352 0.01549073358189506
0.04830248058549297 0.06315186112086962 0.04594056710979971
0.06414518917481707 0.05578791304054078 0.0008096959502856074
0.008186842105263157 0.08951842105263157 0.0692423076923077
0.008186842105263157 0.08951842105263157 0.07800384615384616
0.02346666383465974 0.1068948265602685 0.01729740520871958
0.02173824816889353 0.1154311146816392 0.02325920215952664
0.0631518611353918 0.04830248057783401 0.04594056716000564
0.02494531551430382 0.1027329167412932 0.0195146995034711
0.07183851623179505 0.09626747419654967 0.01961574778428227
0.03733917479360323 0.05667237420028396 0.03460985483077333
0.008186842105263157 0.09855526315789473 0.07800384615384616
0.008186842105263157 0.09855526315789473 0.0692423076923077
0.05504474217006615 0.04567445292027954 0.01831634006650363
0.07095372914307113 0.07095372915634206 0.002643727319257972
0.05908358897212473 0.05908358888626265 0.006452277521647869
0.04241814692971075 0.05562019372964491 0.04784853023157116
0.04911913625911099 0.08788951844616937 0.02512777302171356
0.04765175465720988 0.1083275033227224 0.01574033675119181
0.0327468161851167 0.09785570192525506 0.002342935872371374
0.03737246640998546 0.06380866667668576 0.03937629733806262
0.02627870257329438 0.1028254666463867 0.02369602601159179
[...]
      <PointData>
        <DataArray type="UInt64" Name="type" format="ascii">
1
1
1
1
1
1
1
1
1
1
1
1
1
1
1
1
1
1
1
1
1
1
1
1
0
0
0
1
1
1
1
1
1
1
1
1
1
1
1
1
1
1
1
1
1
1
1
1
1
1
1
1
1
1
1
1
1
1
1
1
1
1
1
1
1
1
1
0
0
0
1
1
0
0
0
0
1
1
0
0
1
1
1
1
1
1
1
1
1
0
0
1
0
0
1
1
1
0
1
0
0
1
1
0
1
0
1
1
1
1
0
0
1
1
1
0
1
1
1
1
1
1
1
1
1
1
1
1
1
1
1
1
1
1
1
1
1
1
1
1
1
1
1
0
0
1
1
1
1
1
1
0
0
1
1
1
1
1
1
1
1
1
1
0
0
0
1
0
0
0
1
0
0
0
0
0
0
0
1
0
1
1
1
1
1
0
0
0
0
0
0
0
1
1
1
1
1
1
1
1
1
0
0
0
0
0
0
1
1
1
1
1
1
0
1
0
1
0
0
0
0
0
0
0
0
0
0
0
0
0
1
1
1
0
0
0
0
0
0
1
1
1
1
1
1
0
1
0
0
0
1
0
0
0
1
0
1
0
0
0
1
1
1
0
0
1
0
0
1
1
0
0
1
1
1
1
0
0
1
1
1
1
1
0
0
1
1
1
1
1
1
0
0
1
1
1
1
1
1
1
1
1
1
1
1
1
1
1
1
1
1
1
1
1
1
1
1
1
1
1
1
1
1
1
1
1
1
1
1
1
1
1
1
1
1
1
1
1
1
1
1
1
1
1
1
1
1
1
1
1
1
0
0
1
1
1
1
1
1
1
1
1
0
1
0
1
1
0
1
1
1
0
1
1
0
1
1
1
1
0
1
1
1
1
0
1
1
1
1
1
1
1
1
1
1
1
1
1
1
1
1
1
1
1
1
1
1
1
1
1
1
1
1
1
1
1
1
1
1
1
0
1
0
0
0
0
1
1
1
0
0
0
0
1
1
1
1
1
1
1
1
1
1
1
1
1
1
0
0
0
1
0
0
0
1
0
0
0
0
0
0
0
0
0
1
1
1
0
0
0
0
1
0
0
0
0
0
0
0
0
0
1
1
1
1
1
1
1
1
1
1
1
1
1
1
1
1
1
1
1
1
0
0
0
0
0
0
1
1
1
0
0
0
0
0
0
0
0
1
1
0
0
1
1
1
1
0
0
0
0
1
1
1
1
1
1
1
1
0
0
0
0
0
0
1
1
1
1
1
1
1
1
0
1
0
0
1
1
0
0
0
1
0
1
0
0
0
0
0
1
0
0
0
0
0
1
0
0
0
0
1
0
0
0
1
1
1
0
0
1
1
1
0
0
0
0
1
0
0
0
0
0
0
0
0
0
0
0
0
1
0
0
0
0
0
0
0
0
1
1
0
1
0
0
0
0
1
1
1
1
1
1
0
1
1
1
1
1
1
1
1
1
1
1
1
1
1
1
1
1
1
1
0
1
1
1
1
1
0
1
0
1
0
1
1
1
1
1
1
1
1
1
1
1
1
1
1
1
1
1
1
1
1
1
1
1
1
1
1
1
1
1
1
1
1
1
1
1
1
1
0
0
0
0
1
1
1
1
0
0
0
0
0
0
0
0
0
0
0
0
0
0
0
0
0
0
0
0
0
0
0
0
0
0
0
0
0
0
0
0
0
0
0
0
0
0
0
0
0
0
0
0
0
0
0
0
0
0
0
0
0
0
0
0
0
0
0
0
0
0
0
0
0
0
0
0
0
0
0
0
0
0
0
0
0
0
0
0
0
0
0
0
0
0
0
0
0
0
0
0
0
0
0
0
0
0
0
0
0
0
0
0
0
0
0
0
0
0
0
0
0
0
0
0
0
0
0
0
0
0
0
0
1
1
1
1
1
1
0
1
0
0
0
0
0
0
0
0
0
0
0
0
0
0
0
0
0
1
1
1
1
1
1
1
1
1
1
1
1
1
1
1
1
1
1
1
1
1
1
1
1
1
1
1
1
1
1
1
1
1
1
1
1
1
1
1
1
1
1
1
1
1
1
1
1
1
1
1
1
1
1
1
1
1
1
1
1
1
1
1
1
1
1
1
1
0
1
1
1
1
1
1
1
0
1
1
1
1
1
1
1
1
1
1
1
1
1
1
1
1
1
1
1
1
1
1
1
1
1
1
1
1
1
1
1
1
1
1
1
1
1
1
1
1
1
1
1
1
1
1
1
1
1
1
1
1
1
1
1
1
1
1
1
1
1
1
1
1
1
1
1
1
1
1
1
1
1
1
1
1
1
1
1
1
1
1
1
1
1
1
1
1
1
1
1
1
1
1
1
1
1
1
1
1
1
0
0
0
0
0
0
0
0
0
0
0
0
0
0
0
0
0
0
0
0
0
1
1
1
1
1
1
1
1
1
1
1
1
1
1
1
1
1
1
1
1
1
1
1
1
1
1
1
1
1
1
1
1
1
1
1
1
1
1
1
1
1
1
0
0
1
1
0
0
0
0
0
1
1
0
1
0
1
0
1
0
1
0
1
1
1
1
1
1
1
0
1
0
1
1
1
1
1
1
1
1
1
1
0
1
1
1
1
1
1
1
1
1
1
1
1
1
1
1
1
1
1
1
1
1
1
1
1
1
1
1
1
1
1
1
1
1
1
1
1
1
1
1
1
0
0
0
1
0
1
1
1
1
1
1
1
1
1
1
1
1
1
1
1
1
1
1
1
1
1
1
1
1
1
1
1
1
1
1
1
1
1
0
0
0
1
0
0
0
1
1
1
0
1
1
0
0
0
0
0
0
0
0
0
0
0
0
0
0
0
0
0
0
1
0
0
0
1
0
0
0
1
1
1
1
1
1
1
1
1
1
1
1
0
1
1
1
1
1
1
1
1
1
1
1
1
1
1
1
1
1
1
1
1
1
1
1
1
1
1
1
1
1
1
1
1
1
1
1
1
1
1
1
1
1
1
1
0
0
0
0
0
1
0
1
1
0
0
1
0
1
1
1
1
1
1
1
1
1
1
1
1
1
1
1
1
1
1
1
1
1
1
1
1
1
1
1
1
1
1
1
1
1
1
1
1
1
1
1
1
1
1
1
1
1
1
1
1
1
1
1
1
0
0
0
0
0
0
0
0
0
0
0
0
1
0
0
0
0
0
0
0
0
0
0
0
0
0
0
0
0
0
0
0
0
0
0
0
0
0
0
0
0
0
0
0
0
0
0
0
0
0
0
0
0
0
0
0
0
0
0
0
0
0
0
0
0
0
0
0
0
0
0
0
0
0
0
0
0
0
0
0
0
0
0
0
0
0
0
0
0
0
0
0
0
0
0
0
0
0
0
0
0
0
0
0
0
0
0
0
0
0
0
0
0
0
0
0
0
0
0
0
0
0
0
0
0
0
0
0
0
0
0
0
0
0
0
0
0
0
0
0
0
0
0
0
0
0
0
0
0
0
0
0
0
0
0
0
0
0
0
0
0
0
0
0
0
0
0
0
0
0
0
0
0
0
0
0
0
0
0
0
0
0
0
0
0
0
0
0
0
0
0
0
0
0
0
0
0
0
0
0
0
0
0
0
0
0
0
0
0
0
0
0
0
0
0
0
0
0
0
0
0
0
0
0
0
0
0
0
0
0
0
0
        </DataArray>
        <DataArray type="Float64" Name="density" format="ascii">
994.1568354505466
992.8677854428054
1000.280862730283
1001.532921677954
998.0467135939458
994.6708940285782
996.855229145893
997.1620183932794
1000.935247888082
1007.019578323241
1001.992659312035
1004.866971688579
1000.098887988852
1000.418396789696
998.9503908407952
1000.526064834184
1000.81417508444
1000.812654746841
998.5456027559928
992.0594850983706
1000.418397375862
1000.469491275896
1003.923155359692
1005.602454032344
1000
1000
1000
1000.54849234683
1000.899243279074
999.0313727388233
999.489109982485
999.5005496314374
999.5883415478922
999.5883405376535
999.7389728216743
1000.664931011344
1002.292977334401
1001.62090592126
1001.620905432816
999.346016901086
1000.275378989272
998.7091370265126
1000.814175624147
999.6693378144014
1002.08648337425
1000.814175025751
1001.662239439005
994.1568358326413
1000.636259324035
998.7091366543682
999.5883410641418
1002.292977212429
999.0102774909999
1001.395177239262
996.8826234840191
996.7402425739924
999.3058939294496
998.8527657879072
1000.058894143693
1001.468886360612
1001.682345666621
1001.554177137625
1001.800497440497
1002.579171867644
1000.484997648386
997.8788323152551
998.1125025571675
1009.998412858876
1000
1000
1000.086806123736
1000.502144677511
1000
1000
1000
1000
1002.324010155453
1002.570667056751
1000
1000
996.6190346450222
998.935515039093
997.8977714170487
998.9355141738065
1001.395178460076
998.9355140421369
1000.502144594282
997.8977700266944
1001.86305505296
1000
1000
997.6133179934161
1000
1000
1002.96741114069
1002.967411084976
1000.83253335745
1000
1002.956898312195
1000
1000
999.3398526923702
1000.812655142234
1000
998.7644197006466
1000.301348619879
1001.554177021131
1000.223747059858
996.8552283934213
999.0313741251487
1000
1000
996.7402432562685
1001.554176651089
1000.418397485052
1000
1001.992659568287
996.7402427379797
1001.554176390371
987.8189779891663
1000.945594510761
1004.456851788177
997.9738013266078
1001.866862832617
996.8390638809516
1001.431087467571
999.3460176087646
1002.001335726286
996.1820675125718
997.162018040596
1001.682344985456
988.2801446668705
998.7644209916506
999.905975734346
992.059485731272
1002.932789242589
1006.832834017696
1001.187710121774
1005.602454894575
999.6413884008266
1001.532921516836
999.33985357228
998.7644203652445
1000
1000
997.1308738951724
990.1457038932386
999.3398527967557
1003.48054070105
994.1568356429879
1002.956898330112
1000
1000
998.0046713544868
995.0006940624569
999.9152171191932
1002.579171468359
1003.039507288819
992.8677853134482
1002.570668624919
1000.83253332896
986.1428195945693
1001.395179001529
1000
1000
1000
1000.526064018042
1000
1000
1000
996.8552289607495
1009.998412602015
1000
1000
1000
1000
1000
1000
1000.79989502294
1001.470002118065
994.8495905486702
1000.799895089516
999.669338632724
1000.799896147312
1001.477622204095
1000
1000
1000
1000
1000
1000
1001.47000192873
1004.164776270234
998.004671201503
992.8677844802007
998.8251021560565
1001.107415326197
1003.346973841646
1001.468886480334
998.8251016003207
1001.107415278303
1001.678039074303
1018.644218422272
1020.218743791254
1001.037834963451
1000
1000
999.4891098810923
1000.958809866079
997.7486394822271
1001.532922086408
1000.113831290034
989.8463836921404
1000
994.1568360367595
1000
1000.899243206065
1000
1000
1000
1000
1000
1000
1000
1000
1000
1000
1000
1000.000603757314
1000
989.846383818625
1001.431086755347
1002.001334847281
1000
1000
1000
1000
1000.301348632933
1000
996.1820680254129
1008.501626746552
1001.866863660052
996.8390623148653
1001.33297229664
1007.019577883091
1000
1001.992659602857
1000
1000
1000
1000.594091660488
1000
1020.218743791247
1018.6442187339
1001.800496766295
1000
1000.935247981921
1000
1000
1000
1001.66223963385
1002.967410703972
1002.967410864204
1000
1000
1001.166284416358
1000
1000
998.4605877820454
998.0467141137437
1000
1000
997.162018176982
1001.991692214883
997.973800792741
986.1428202158841
1000
1000
990.1457027075288
1000.280862753679
1000.05889417896
994.8495901647826
1000.899243192928
1000
1000
1002.632053639208
1003.480541627114
997.7676973140393
997.1308736034371
1013.160451553261
987.818977384495
1000
1000.000603757206
995.0006943179351
1001.863054235824
1001.138053228336
1001.468886355355
1002.098088882428
997.8788323309604
1002.098088786464
1000.280862978218
1000.098888122467
1000.048692800308
998.9298010477843
996.8826225895812
1000.445160766803
999.5805141510652
999.9152172622126
1000.189218992399
1000.716831789409
999.3058934026649
1000.189218459003
1002.324009630826
1002.32400990104
998.0046715169683
1001.682345042206
996.0113390265259
996.0113388293266
998.5668792962855
988.2801445657948
997.8561600856943
1013.160450886638
996.6190347138203
999.9764317871401
999.9764320641722
998.8527656866222
1002.086484743257
998.8251019980913
998.825101524604
1002.535298481484
1000.189218845645
1000.086806150777
1000.086805538466
1000.058894269849
1000.628055430918
1000.628055110343
1000.530520757883
999.9098211704597
986.6649966377219
999.9098221665159
1000.44516023015
997.9738009341044
1000.448830770675
1000.716832032225
1000.448830909312
1001.107415315967
998.1125020689258
1000.156779293873
998.5456029768109
998.1125025709176
1000.113831320994
1000
1000
1000.156779083033
1000.484996919639
1002.934800421961
997.7486399389447
1000.548492079863
998.1125023360416
999.0102772269929
986.6649967206254
1003.923154304233
1000
999.7389730980209
1000
1001.477622417708
1001.107415219374
1000
1002.932790437281
1000.058893955739
1004.164775761241
1000
1000.636259257564
1002.934799908508
1000
999.580595864481
1003.039507169367
989.8916883301083
1006.832833664262
1000
989.8916887450274
1001.268457201847
1001.468886440992
1000.958809961081
1000
1001.268457502046
1000.223747000303
998.9298008976228
1001.992660049764
999.5805959408912
999.9764319561522
1000.548492576752
1001.477622220567
997.3891316903151
999.5805956537602
999.598401841168
999.5984019203981
999.5984021321817
999.5984021556312
997.3891316428466
1002.09808871615
997.3891316834289
997.3891317358143
1000.636259417578
1000.53052032449
1000.579536885125
999.439816718184
999.439816775423
1000.01090269476
998.0467137516936
998.4605876039251
1000.94559515529
1000.812654799002
999.5005500301377
1000.011696271301
1000.011696401883
1002.570667859803
1001.268457394955
1002.579171935469
1001.166285805299
1000
1007.178629242623
1000
1000
1001.037835541543
1000.575553552853
1001.620905700218
999.580514208837
997.7486393902776
1003.144031339428
1000
1000
1000
1001.66223961796
1002.086484261661
1004.866971413437
999.7389445414445
999.3058936003183
1000.445160516128
997.8788322972815
1000.068145070909
999.8248555729925
999.8248556232883
1001.8004971844
1000.27780587709
1000.277805051865
999.0313735404754
1000
1000
1000
1006.832833448853
1000
1000
1000
1000.594091432578
1000
1000
1000.000603757357
1000
1000
1000
1000
1000
1000
1000.502144380385
1003.923154311785
986.6649967656892
1000
1000
1001.470002251503
1000
996.1057241811701
1000
1000
1000
1000
1000
1000
1000
1000
1009.998412690056
1004.225516941347
997.8977706064118
996.199069901944
998.4212869349169
998.4429164246102
998.4429166110112
1005.602455374755
992.7916849070463
1000.223746915954
992.0594850825479
1000.429361012435
1001.490457517044
998.1759516660992
998.1759515406469
998.7439352691957
1009.310608696102
998.7439367116596
996.3616083398574
996.3616082776024
998.6429871511976
1000
1000
1000
1000
1000
1000
997.4395618566225
999.6982574857381
999.698257576377
1000
1000
1000
1000
1020.218743647212
1018.644218706586
1001.678039328796
1014.332012854277
1001.187709824233
998.3582799332893
1000
1000
1003.480539888424
990.1457036019135
1001.289311585537
1002.060625316018
1000
1000
1000
1000
998.950391220236
1001.869665498017
999.0102773116123
992.7916848516173
999.0282033572704
999.0282031783078
1013.160451171296
989.8463839305264
1000
1000.301348621469
1000
1000
1000
1000
1002.001335351721
996.1820678026112
1001.431087369918
1001.866862834241
1008.501626809122
1001.332972719197
996.8390638680902
986.1428214736126
1000
999.0326237877255
1000.99255387032
1000.08169312838
999.686188564783
999.686189294216
1000
1000
1000
997.8969040453626
1000
994.0817516172674
1000
1000
1000
1000
1000
998.5456031059157
1000.00981859465
1000
1000
1000
1000
1003.34697321898
1000
1000
1000
1000
997.6133170837342
1000
1000.195696265724
1002.36164217519
998.8162395513926
999.4755143819424
997.7676974976251
1000
1000
987.8189772777072
999.6693389950736
1001.869665550539
1000
1000
1000
1000
999.6578360768226
1000
1000
1000
1000
1000
1000.009818645111
1000
1000
1000
1000
1000
1000
997.1308735580134
1003.144031121171
1000.992554031865
1000
1000
1000.57555351352
1000
1000.081693191137
1000.104308564058
1000.716832329254
988.2801444252059
1000
1000.41960653578
1014.332012953726
1000.195696396332
1002.361642324317
1000.923284723806
997.4147855302335
996.8826226348037
1001.28931169541
1000.29776848367
1000.297768788213
1000.156779201971
1000
999.9059763558477
1000.832533454793
999.7389729393635
999.6413877681969
999.3460171007865
998.5668794547056
997.9929981401377
1002.956898452924
997.9929984244851
998.3582799074834
1000.3010664203
998.237107638425
1002.060625351685
999.4583039913416
997.4147865287895
997.5157625978989
997.5157628264077
993.912214172209
999.4583039684619
1000
1001.991692285179
1002.632053905972
1000.526063835078
981.9886820075728
1000.181043309993
1000
1000.09888800918
1000
1000.181043449973
1000
1000.189734799918
1004.456851393684
1001.257027339125
999.4891098942161
996.6190344406152
1001.863055093358
1004.164776084681
1000.068144976706
1000.301066765938
999.2654583799604
1000.976508277404
1001.138053256597
1001.25702803517
1001.849899075608
1001.849900145228
1000.976508361975
998.8162398677028
998.8292980233452
999.738944638195
1000.636259262463
1001.477622024557
1000.548491870471
1002.934799860523
1000.276885295056
999.5805960705243
1002.932789448814
998.9298008874431
1003.039507080995
1000.484997285182
1000.113831370392
1000.958810039347
1002.098088940259
989.8916886866541
999.9764320123551
1000.628054995286
999.9098213228019
1000.44883099638
1000
1000
1000
1000
999.2654583875661
1000.208908199925
999.9779827586664
999.9779827921053
1000
1000
1000
1000
1000
1000
1000
1000
1000
1000
1000
1000
1000
1000
1000
1000
1000
1000
1000
1000
1000
1000
1000
1000
1000
1000
1000
1000
1000
1000
1000
1000
1000
1000
1000
1000
1000
1000
1000
1000
1000
1000
1000
1000
1000
1000
1000
1000
1000
1000
1000
1000
1000
1000
1000
1000
1000
1000
1000
1000
1000
1000
1000
1000
1000
1000
1000
1000
1000
1000
1000
1000
1000
1000
1000
1000
1000
1000
1000
1000
1000
1000
1000
1000
1000
1000
1000
1000
1000
1000
1000
1000
1000
1000
1000
1000
1000
1000
1000
1000
1000
1000
1000
1000
1000
1000
1000
1000
1000
1000
1000
1000
1000
1000
1000
1000
1000
1000
1000
1000
1000
1000
1000
1000
1000.664720501265
1000.328630581592
999.3224278055346
999.3507231203092
1000.8081935865
1000.085540735762
1000
999.5689266036322
1000
1000
1000
1000
1000
1000
1000
1000
1000
1000
1000
1000
1000
1000
1000
1000
1000
996.8552287994386
998.7644205643113
1007.019578352795
998.5668792111339
996.7402433089469
1000.469491358958
1000.899243465436
1001.166286695814
1002.086482921502
999.5883415835541
999.7389723711184
1002.932789283439
1000.484997892215
998.935513939599
1002.967410827387
996.7402428528834
1000.716832229249
998.8527657092666
1001.554176553056
999.3398527751373
999.0102773661706
1002.579172260618
1002.934799961633
1003.039507155178
1000.086806457012
999.4891094928118
1002.324009872749
996.6190344873912
997.7486400066263
992.8677856272683
1000.189219158141
1002.956898523549
1001.532921867873
1004.164776209734
999.3058938391908
1013.160451184996
986.142821755309
1003.480539966054
1001.863054892126
996.1820678292798
1000.113831302612
988.2801446713651
998.8251015363689
1000.958809992844
1000.445160459645
999.0313730939439
1002.932790501755
1002.934800473378
1006.832833992608
1003.92315567094
986.6649967748359
1000.223747365915
1000.156778887534
998.5456021090812
1001.863054245005
999.3460168889784
1000.832533313607
997.1620186276851
989.8916883965304
997.8788322734415
998.9298013895419
997.8977702425587
1001.620905638239
1000.223746720453
992.0594852436366
999.0313736801153
999.9152169739791
1001.395178777651
1000
1006.832833753506
998.5456024621355
1000.156778828476
1005.602455196148
1003.9231544601
986.6649966338319
997.8788321876848
1000
989.8916886787199
1001.107415269594
998.929800970709
1000.6280551035
999.6693369154355
1000.526063421456
1000.098888195502
996.882622714417
998.9355147354191
1000.62805535018
999.9098211488722
1000.448831121389
1000.448831033201
1001.268457207279
1001.992660024762
1000.799894636148
996.8552283913727
997.9738006958195
1000.28086312
1002.570668252868
1000.814175201045
999.909821955877
997.897771088212
998.7644199923172
1000.899243156849
1001.682345239773
1000.95880980915
1000.812654806788
1000.113831356767
1000.484996758581
999.669339067384
1003.039507057119
1001.468886475853
1002.086485291729
1000.058894004316
1001.620905805926
1000.716831881805
999.7389730175368
999.0102773087624
1001.268457666269
997.7486397031778
999.4891098503836
999.3058934862506
1000.445160979096
1000.502144650254
997.1620178433659
998.0467138896538
998.3582796583208
998.4605880933256
1000.945595097498
1000.945594763132
998.3582798717665
986.1428193959323
1000.011696554011
1000.812655073912
992.7916844194169
992.791684366701
1000.935248078792
1007.178628635998
1001.431086759154
1000.935248488401
1004.866971147787
1004.866971601719
999.8248550685388
1001.80049688532
1000.594091746351
1000.502144368128
999.3460174957015
998.4429166263436
997.8561595619104
1002.001334941884
1000.280862996606
1002.956898395598
1009.310608917413
1002.570667761029
996.199071209411
1008.501626872109
1003.346973574743
1003.346974021262
1001.332972141938
1008.501626869805
994.8495903404756
994.8495902495587
994.6708937466641
999.9059761159532
1001.532921807418
996.1820670048355
993.9122139203105
999.9059755677114
999.0282028682359
1004.225517261145
996.3616081254401
1001.166284592748
999.4755148750661
1000.277805006203
1000.277806048114
999.6861896016457
999.0326242401648
999.6861885264705
1005.602454062517
997.7676980058247
1001.678039293679
1014.332012871629
1000.195696154548
1001.037835497029
1000.575553340609
1000
1000
1003.14403122101
1000.992553684364
1000
1000
1000
1000
1000
1000.009818588615
1000
1000
1000
1000
1000
1000
1002.060625286084
997.6133176997758
999.4398166540277
997.6133169131664
1001.86686359015
998.7439360936577
996.8390622046315
1000.010902284641
1001.332971818814
999.6982580083015
999.6982577718032
998.7439339164983
998.1759515726638
1003.480541912439
997.9929979053965
981.9886824276413
1002.632053781014
1002.632053769391
997.1308738911338
1007.019577947937
992.8677840791009
1001.682345669821
1004.164776069332
992.0594853580332
1001.395177527139
997.9738016284771
1004.456851808279
1004.456851915185
1001.289311890335
1013.160451674938
988.2801446078347
994.081750925392
998.0046715356701
1001.991692816156
1001.991692302758
987.8189780247945
999.3507230864531
1000.530519571835
1000.814175259243
1001.187709988541
1001.138053127206
1000.57953736904
1000
1000
1000.41839711927
999.2654582355267
1000
1000
1000
1000
1000
1000.832533304347
999.6413881649399
1000
1000.301066908429
1000
999.3398538659812
1000
1001.257027282984
1000
1001.138053107219
1000
999.6413885008103
1001.849898260021
1001.187710204945
1001.849899777245
997.4147856936963
997.4147863292498
999.3224277345101
1000
1001.86966583877
1000
1000.189734952413
1000.29776863327
997.5157627005843
998.7091368958231
1000.085540769308
999.7389448355199
999.977982796378
998.5668793772788
1000.301066749335
999.5005501758839
1000
1000.6647205398
1000.181043554026
1001.257028207314
999.9779828592626
999.7389448527223
999.5005501704243
1000.976507881753
1000.976508161503
996.6190352918853
1002.324009968766
1000.086805765269
999.4583034911204
999.4583035023189
1002.535298236359
999.5805142476617
999.5805141177268
1000.530520727257
1002.579171626089
999.5689261883697
1002.292977740603
1000.068144882125
998.8162396139211
998.8162394876061
998.9503909133864
998.9503910753456
999.5883401776631
1000.808193648916
1000.208908457354
1000.429360994159
1000.664931331107
1000.048693023977
999.6578365085387
1000.328630632296
1000.275379416262
1000.189218683037
1000.0988881076
996.8826232823512
1000.799896128885
1000.526064708875
997.1620178633258
1000
1000
1000
998.046713574975
1000
1002.292977271616
1000.812655036396
998.9355139591173
1001.620905803348
996.0113390324569
999.6693382735564
1000.716832356613
999.5883412702759
997.7486394690236
999.0102773228916
996.1820666307829
999.3058938063182