<VTKFile type="PolyData" version="1.0" byte_order="LittleEndian" header_type="UInt64">
  <PolyData>
    <Piece NumberOfPoints="2357" NumberOfVerts="2357">
      <Points>
        <DataArray type="Float64" Name="Points" NumberOfComponents="3" format="ascii">
0.0611356031510616 0.07621408954440637 0.09483495945368495
0.05819943310632286 0.1321911241754188 0.05578296658072381
0.05004789763484153 0.1086487717491799 0.04883758490906505
0.06135122824982822 0.1199521023671507 0.04883758491182458
0.05925248958289572 0.07468834338575656 0.0269663389966493
0.03943414613602143 0.1037307941223965 0.05256094596195147
0.1037307941266593 0.1305658538628122 0.05256094596714057
0.04470170988808965 0.125298290114647 0.05205975110394657
0.03619847273716781 0.1188287582130159 0.05421421763352906
0.0511712417890915 0.1338015272653614 0.05421421763976797
0.06248963552045166 0.1497042314602585 0.06081617241177064
0.02029576854904753 0.1075103644817809 0.06081617240426146
0.0673063069307485 0.1216036382748749 0.04511468929612385
0.04839636172085788 0.1026936930676524 0.04511468929790095
0.1054300295040997 0.1423614543556816 0.01236406403481249
0.1026936930655162 0.1216036382716957 0.04511468930295211
0.0758423170918016 0.1410785602195515 0.009980823979148821
0.09415768290856595 0.1410785602454884 0.009980824007516395
0.04529025983132421 0.1503099987594315 0.06376491361671151
0.08646295258668664 0.1391818234187906 0.003804465481584171
0.08353704733883444 0.1391818234714882 0.003804465553961674
0.01969000124592016 0.1247097401642135 0.06376491361492669
0.03276850250635227 0.1291569242724755 0.05837921584108959
0.04084307572862084 0.1372314974960563 0.05837921584452466
0.05489642976305347 0.1151035702366911 0.04554736855150622
0.04697814638400601 0.08172917790625805 0.04204454900902221
0.04697814638771646 0.0882708220910555 0.04204454900163612
0.08827082209004444 0.1230218536144356 0.04204454901042809
0.07479153572086783 0.1226954853611677 0.04233344902600042
0.07365002158274558 0.1304616424599049 0.0493297375519007
0.03953835753740175 0.09634997841681792 0.04932973754758741
0.0473045146422265 0.09520846427613043 0.04233344902068706
0.09520846427713728 0.1226954853569031 0.04233344903146314
0.0440720334237809 0.07460087185549556 0.05244118181099324
0.1002123310269507 0.1223085503250706 0.09005300948387684
0.0963499784157142 0.1304616424663633 0.04932973754897243
0.1003430296165605 0.1376757846027246 0.002928515279608269
0.0473045146403637 0.07479153571709402 0.04233344903505342
0.1017501323084199 0.1306775532336321 0.09248753047205213
0.09418326672427518 0.1204493574106586 0.08807235408566347
0.03535275124483835 0.1502528381892349 0.06611733926183598
0.0197471618095599 0.1346472487574729 0.06611733925678505
0.03898033421449613 0.08867723034614093 0.04892551948186648
0.04479438722592152 0.08148264321070844 0.002390880852171845
0.06232015745401409 0.1143916897656851 0.04361936860255338
0.05560831023433185 0.107679842544287 0.0436193686057191
0.08867723034327242 0.131019665795634 0.04892551948374732
0.03898033420936065 0.08132276966229143 0.04892551948157335
0.07151532815181436 0.1492903541891318 0.0585940371286469
0.02070964580819789 0.09848467185036024 0.05859403712303831
0.09848467184867192 0.1492903541960086 0.05859403712038764
0.08809077790498675 0.1189664190584263 0.08838494054077883
0.04479438721728535 0.08851735678649769 0.002390880854809947
0.0690234454658393 0.1009765545329958 0.03930846510609316
0.02727915470937211 0.08085227503945543 0.02364824256903374
0.02727915482860471 0.08914772496477465 0.02364824252746694
0.04264573072277314 0.1204615323893179 0.01259642133664006
0.06471862189365069 0.07547989610132048 0.01030586701612164
0.05872534729668583 0.1272714889766638 0.02995482524596494
0.03101831104957941 0.1312830476144625 0.04756854109908646
0.03871695238763621 0.1389816889411375 0.04756854109411151
0.09535031827389699 0.1297268913023122 0.09020355439330431
0.1035663294637142 0.1353253628859942 0.09098179853598631
0.03088682670487612 0.1259727747053596 0.02743753499697546
0.06605266114633486 0.1269496238964296 0.0262274839775316
0.08951842105263157 0.1618131578947369 0.007911538461538463
0.09855526315789473 0.1618131578947369 0.007911538461538463
0.08866666712887213 0.1275335900010894 0.08898193809565109
0.06917463345452088 0.07568203161727217 0.07923764775312132
0.1041029273537235 0.1231299647008959 0.07532869562597883
0.09623342126429657 0.1351885267899892 0.08837914070850336
0.09991207677838035 0.1203521026947488 0.082461728747613
0.05689678825470471 0.1351702316097371 0.0524944655173394
0.0348297683921287 0.1131032117457447 0.05249446550687679
0.09332652437396807 0.1182655939249683 0.08184155881377743
0.08192190996887175 0.1030549381148778 0.03773992999775853
0.0669450618938124 0.08807809003336306 0.03773992999031436
0.01798734189160083 0.1256462022271607 0.03771611983021919
0.03537787868845958 0.1213085351481765 0.04958370204463607
0.04354518393434206 0.1264548160696301 0.03451709517062788
0.01798234858129164 0.09779723785329898 0.03290915061255779
0.06694506188537763 0.0819219099626711 0.03773992999322144
0.09939731698414232 0.1510426331600629 0.02255204122852237
0.07060268300323894 0.151042633152501 0.02255204121870696
0.03007583306622636 0.1399241669294359 0.06091729515651803
0.0804732384310535 0.1489350669079776 0.05734735812293931
0.02106493309399212 0.08952676156572013 0.05734735812027824
0.02106493309024923 0.08047323843080816 0.05734735812352685
0.09117399483833163 0.1489788013950432 0.01918462703656183
0.05068309643892795 0.1193169035816093 0.004037330359103724
0.0788260051344727 0.1489788014005948 0.01918462705628891
0.05379508937732779 0.1508042900971533 0.05339494105968695
0.04551788074769379 0.1509538631531707 0.05785682033785659
0.08090804272381598 0.1272721737914526 0.02164690859074984
0.05566248394235832 0.1370789403558764 0.04075100984974273
0.08952676156429441 0.1489350669120473 0.05734735812367278
0.05281246584778897 0.1236691026080842 0.04384695598156501
0.04633089739205826 0.1171875341513895 0.04384695598411131
0.07621300730818639 0.1005327081969927 0.03456041203395448
0.07238227978108867 0.1270804822445324 0.02336394564368192
0.06946729180837174 0.09378699269260539 0.03456041203251512
0.08951842105263157 0.1618131578947369 0.01667307692307693
0.0648686887542647 0.1358484221992901 0.04867212088151743
0.03415157777534831 0.1051313112391231 0.04867212088990481
0.1051313112399514 0.1358484222260613 0.04867212089321814
0.06885132488261853 0.1159087458026056 0.03894353103866263
0.05409125419849708 0.1011486751111507 0.03894353103494347
0.09855526315789473 0.1618131578947369 0.01667307692307693
0.0889272302148858 0.1334357148307066 0.087050242960025
0.1046703698826763 0.1385134532699236 0.08826026981759101
0.07532720967609408 0.1167108115548638 0.03791824409992849
0.05328918845775814 0.09467279031791453 0.03791824408781413
0.03565863704264719 0.06473537128485693 0.0086754111268429
0.05345190546157565 0.1516282751056954 0.05977701715619645
0.05305875172450854 0.07512013858382825 0.033213316606396
0.01837172490513457 0.1165480945387975 0.05977701714792193
0.05333538727889032 0.08194898691472088 0.03745389680400927
0.08194898691330024 0.11666461271704 0.03745389680490453
0.05123388225801179 0.07495478842625518 0.00471705833695671
0.09684784395155377 0.1388902643858178 0.0858522864106769
0.05333538729390641 0.08805101309039598 0.03745389679459047
0.07362250000600239 0.1361799365542855 0.04709079072016506
0.03382006344066642 0.09637749999423524 0.04709079072937408
0.09637749999415876 0.1361799365715147 0.04709079073084051
0.07220276215038042 0.152017651418716 0.03290915061804837
0.03164491453979167 0.08894500408061809 0.04692938285228995
0.03164491453420498 0.08105499592236017 0.04692938284649936
0.08894500408162787 0.1383550854694097 0.04692938285700452
0.0486914648541199 0.1346221213124775 0.04958370205342345
0.01869462724504023 0.08060165006196039 0.02981138908108081
0.0610721268092743 0.1153913048614246 0.03740549558693864
0.05460869513738691 0.1089278731921871 0.03740549559074506
0.03166642125229055 0.1308141175722636 0.05356591854229016
0.03918588242689419 0.1383335787467407 0.05356591854364336
0.0674524794236771 0.1168611039946416 0.03506433407255306
0.05088773515243687 0.1272580501658765 0.03753928382968955
0.01869462723927965 0.08939834995539536 0.02981138906230993
0.05313889599997533 0.1025475205736424 0.03506433407848231
0.03413879899646603 0.123813825715361 0.104239995782237
0.05305875172231678 0.09487986140843477 0.0332133166364155
0.06865137983329149 0.1240720191057351 0.1038846678291877
0.05394904086350692 0.08155031532028031 0.03111981409891295
0.08155031531523786 0.1160509591372079 0.03111981410362214
0.02760154842140416 0.06406761704925608 0.07702479564765891
0.05394904086591842 0.08844968468618798 0.03111981411038902
0.05978012955555138 0.12567011670255 0.03660492529584743
0.04432988329472011 0.1102198704440173 0.03660492530105464
0.05328918844000521 0.07532720967670922 0.03791824410251694
0.06146662835617558 0.1085333716404412 0.03201026578535451
0.05611368552403963 0.1367698158511605 0.04710553618335729
0.03323018415625419 0.1138863144724452 0.04710553617415159
0.04235711194872625 0.1276428880494307 0.043581183307127
0.0890478847171456 0.1376043015320698 0.084794964181171
0.02892143980376012 0.07584231712222536 0.009980823926125792
0.01854273672813529 0.1424026526836771 0.06555404990988281
0.08951842105263157 0.1618131578947369 0.02543461538461539
0.09855526315789473 0.1618131578947369 0.02543461538461539
0.1049706459372177 0.1405097562081466 0.08525761266962271
0.02759734731894192 0.1514572632685487 0.06555404990506433
0.01867404150073485 0.1073514530521911 0.05551397382852084
0.06264854695153493 0.1513259585040573 0.05551397383556007
0.09708791162053661 0.1411868949203209 0.08294058098329597
0.07512013858334173 0.1169412482754364 0.03321331661587033
0.06631797039498412 0.1264674564512755 0.03271949650786301
0.04353254354752339 0.1036820296057246 0.03271949651019761
[...]
      <PointData>
        <DataArray type="UInt64" Name="type" format="ascii">
1
1
1
1
1
1
1
1
1
1
1
1
1
1
1
1
1
1
1
1
1
1
1
1
1
1
1
1
1
1
1
1
1
1
1
1
1
1
1
1
1
1
1
1
1
1
1
1
1
1
1
1
1
1
1
1
1
1
1
1
1
1
1
1
1
0
0
1
1
1
1
1
1
1
1
1
1
1
1
1
1
1
1
1
1
1
1
1
1
1
1
1
1
1
1
1
1
1
1
1
1
0
1
1
1
1
1
0
1
1
1
1
1
1
1
1
1
1
1
1
1
1
1
1
1
1
1
1
1
1
1
1
1
1
1
1
1
1
1
1
1
1
1
1
1
1
1
1
1
1
1
1
1
1
1
0
0
1
1
1
1
1
1
1
1
1
1
1
1
1
1
0
0
1
1
1
1
1
1
0
0
1
1
1
1
1
1
0
0
1
1
1
1
1
1
0
0
1
1
1
1
1
1
0
0
1
1
1
1
1
1
0
0
1
1
1
1
1
1
1
1
1
1
1
1
1
1
1
1
1
1
1
1
1
1
1
1
1
0
0
1
1
1
1
1
1
1
1
1
1
1
1
1
1
1
1
1
1
1
1
1
1
1
1
1
1
1
1
1
1
1
1
1
1
1
1
1
1
1
1
1
1
1
1
1
1
1
1
1
1
1
1
1
1
1
1
1
1
1
1
1
1
1
1
1
1
1
1
1
1
1
1
1
1
1
1
1
1
1
1
1
1
1
1
1
1
1
0
0
0
0
0
1
1
1
1
1
0
0
1
1
0
1
0
0
1
1
0
0
1
1
1
1
1
0
1
1
1
1
1
1
1
1
1
1
1
1
1
0
0
0
1
1
1
0
0
1
0
0
0
1
1
1
0
0
1
0
0
1
1
1
1
1
1
1
1
1
0
1
0
1
1
1
1
1
1
1
1
1
1
1
1
1
1
1
1
1
1
1
1
1
1
1
1
1
1
1
1
1
1
1
1
1
1
1
1
1
1
1
1
1
1
1
1
0
0
1
1
0
1
0
0
0
1
1
1
1
0
0
0
0
0
0
0
1
0
1
1
1
1
1
1
1
1
1
1
0
0
0
0
0
0
0
1
1
1
1
1
1
1
1
1
1
1
1
1
1
1
1
1
1
1
1
1
1
1
1
1
1
1
1
1
1
1
1
1
1
1
1
1
1
1
1
1
1
1
1
1
1
1
0
1
0
0
0
0
0
0
0
0
0
0
0
0
0
0
0
0
0
0
0
0
0
0
0
0
0
0
0
0
0
0
0
0
0
0
0
0
0
1
0
0
0
0
0
0
0
1
1
1
1
1
0
0
0
0
0
0
0
0
0
0
0
0
0
0
0
0
0
0
0
0
0
0
0
0
0
0
0
0
0
0
0
0
0
0
0
0
0
0
0
0
0
0
0
0
0
0
0
0
0
1
0
0
0
0
0
0
0
1
1
1
1
0
0
0
0
1
1
1
0
0
0
0
1
1
1
1
1
1
1
1
1
1
1
1
1
1
1
1
1
0
0
0
0
0
0
0
1
1
1
1
1
1
1
1
1
1
1
1
1
1
1
1
1
1
1
1
1
1
1
1
1
1
1
1
1
1
1
1
1
1
1
1
1
1
1
1
1
1
1
1
1
1
1
1
1
1
1
1
1
1
1
1
1
1
1
1
1
1
1
1
1
1
1
1
1
1
1
1
1
1
1
1
1
1
1
1
1
1
1
1
0
0
0
0
0
0
1
1
1
1
1
1
1
1
1
1
1
1
1
1
0
1
1
1
0
0
1
1
1
1
0
1
1
1
1
1
1
1
0
1
1
1
1
1
1
1
1
1
0
1
1
1
1
1
0
1
0
0
1
1
0
1
1
1
0
0
0
0
1
1
0
1
1
0
0
1
0
0
0
1
0
0
1
1
0
1
1
1
0
0
0
0
1
0
0
0
0
0
1
1
1
1
0
1
0
1
0
0
1
1
1
1
1
1
1
1
1
1
1
1
1
0
0
1
1
1
1
1
0
1
0
1
1
1
1
1
0
0
1
1
1
1
1
1
1
1
1
1
1
1
1
1
1
1
1
1
1
1
0
0
1
1
1
0
1
1
1
1
1
1
1
1
1
1
1
1
1
1
1
1
1
1
1
1
1
0
1
1
1
1
1
1
1
1
1
1
1
1
1
1
1
1
1
1
1
1
1
1
1
1
1
1
1
1
1
1
1
1
0
1
1
0
1
1
1
1
1
1
1
1
1
1
1
1
1
1
1
1
1
1
1
1
1
1
1
1
1
1
1
1
1
0
1
1
1
1
1
1
1
1
1
1
1
1
1
1
1
1
1
1
1
0
1
1
1
1
1
1
1
1
1
1
1
1
1
1
1
1
1
1
1
1
1
1
1
1
1
1
1
1
1
1
1
1
1
1
1
1
1
1
1
1
1
1
0
0
1
1
1
1
1
1
1
1
1
0
0
0
0
0
0
0
1
1
1
1
1
1
1
1
1
1
1
1
1
1
1
1
1
1
1
1
1
1
1
1
0
0
0
1
1
1
1
1
1
1
1
1
1
1
1
1
1
1
1
1
1
1
1
1
1
1
1
1
1
1
1
1
1
1
1
1
1
1
1
1
1
1
1
1
1
1
1
1
1
1
1
1
1
1
1
1
1
1
1
1
1
1
1
1
1
1
1
1
1
1
1
1
1
1
1
1
1
1
1
1
1
1
1
1
1
1
1
0
1
0
0
0
0
0
1
1
1
1
1
1
1
1
1
1
1
1
1
1
1
1
1
1
1
1
1
1
1
0
0
1
0
0
1
0
0
1
0
0
0
0
0
0
0
0
0
0
0
0
1
1
1
1
1
1
1
1
1
1
1
1
1
1
1
1
1
1
1
1
1
1
1
1
1
1
1
1
1
1
1
1
1
1
1
1
1
1
1
1
1
1
1
1
1
1
1
1
1
1
1
1
1
1
1
1
1
1
1
1
1
1
1
1
1
1
1
1
1
1
1
1
1
1
1
1
1
1
1
1
1
1
1
1
1
1
1
1
1
1
1
1
1
1
1
1
1
1
1
1
1
1
1
1
1
1
1
1
1
1
1
1
1
1
1
1
1
1
1
1
1
1
1
1
1
1
1
1
1
1
1
1
1
1
1
1
1
1
1
1
1
1
1
1
1
1
1
1
1
1
1
1
1
1
1
1
1
1
1
1
1
1
1
1
1
1
1
1
1
1
1
1
1
1
1
1
1
1
1
1
1
1
1
1
1
1
1
1
1
1
1
1
1
1
1
1
1
1
1
1
1
1
1
1
1
1
1
1
1
1
1
1
1
1
1
1
1
1
1
1
1
1
1
1
1
1
1
1
1
1
1
1
1
1
1
1
1
1
1
1
1
1
1
1
1
1
1
1
1
1
1
1
1
1
1
1
1
1
1
1
1
1
1
1
1
1
0
0
1
1
1
1
1
1
1
0
1
0
1
0
0
1
0
0
0
0
0
0
0
0
0
0
0
0
1
1
1
1
1
1
1
1
1
1
1
1
1
1
1
1
1
1
1
1
1
1
1
1
1
1
1
1
1
1
1
1
1
1
1
1
1
1
0
0
0
0
0
0
1
1
1
1
1
1
1
1
1
1
1
1
1
1
1
1
1
1
1
1
1
1
1
1
1
1
1
1
1
1
1
1
1
1
1
1
1
1
1
1
1
1
1
1
1
1
1
1
1
1
1
1
1
1
1
1
1
1
1
1
1
1
1
1
1
1
1
1
1
1
1
1
1
1
1
1
1
1
1
1
1
1
1
1
1
1
1
1
1
1
1
1
1
1
1
1
1
1
1
1
1
1
1
1
1
1
1
1
1
1
1
1
1
1
1
1
1
1
1
1
1
1
1
1
1
1
1
1
1
1
1
1
1
1
1
1
1
1
1
1
1
1
1
1
1
1
1
1
1
1
1
1
1
1
1
1
1
1
1
1
1
1
1
1
1
1
1
1
1
1
1
1
1
1
1
1
1
1
1
1
1
1
1
1
1
1
1
1
1
1
1
1
1
1
1
1
1
1
1
1
1
1
1
1
1
1
1
1
1
1
1
1
1
1
1
1
1
1
1
1
1
1
1
1
1
1
1
1
1
1
1
1
1
1
1
1
1
1
1
1
1
1
1
1
1
1
1
1
1
1
1
1
1
1
1
1
1
1
1
1
1
1
1
1
1
1
1
1
1
1
1
1
1
1
1
1
1
1
1
1
1
1
1
1
1
1
1
0
0
0
0
1
1
1
1
1
1
0
0
0
0
1
1
1
1
1
1
1
1
1
1
1
1
1
1
1
1
1
1
1
1
1
1
1
1
1
1
1
1
1
1
1
1
1
1
1
0
0
0
0
0
0
0
0
0
0
0
0
0
0
0
0
0
0
0
0
1
0
0
0
0
1
0
0
0
0
1
1
1
1
1
1
1
1
1
1
1
1
1
1
1
1
1
1
1
1
1
1
1
1
1
1
1
1
1
1
1
1
1
1
1
1
1
1
1
1
1
1
1
1
1
1
1
1
1
1
1
1
1
1
1
1
1
1
1
1
1
1
1
1
1
1
1
1
1
1
1
1
0
1
1
1
1
0
0
0
0
1
0
0
0
0
1
0
0
0
0
1
1
1
1
1
1
1
1
1
1
1
1
1
0
1
1
1
1
1
1
0
1
1
1
1
1
0
1
1
1
0
0
1
0
1
0
0
0
0
0
1
0
0
0
0
0
0
0
0
0
0
0
0
0
0
0
0
0
0
1
1
1
1
1
1
1
1
1
1
1
1
1
0
1
1
0
1
0
1
0
1
1
1
0
0
1
1
0
0
0
0
0
1
0
1
0
0
0
0
0
0
0
0
0
1
1
0
0
0
0
0
0
0
0
0
0
0
0
0
0
0
0
0
0
0
0
0
0
0
0
1
1
0
0
0
0
0
0
0
0
0
0
0
0
0
0
0
0
0
1
0
0
0
0
1
1
1
1
0
0
0
0
0
1
0
0
0
0
0
0
0
0
0
0
1
1
1
1
1
1
1
0
1
0
1
0
1
0
1
1
1
0
0
0
0
0
0
0
0
0
0
0
0
0
0
0
1
1
0
0
1
0
0
0
0
0
0
0
0
0
0
0
0
0
0
0
0
0
0
0
0
0
0
1
1
1
0
0
1
0
0
0
1
0
0
0
0
0
0
0
0
1
1
1
1
1
0
1
1
1
1
1
1
0
0
0
1
1
1
1
1
1
1
1
1
1
1
1
1
1
1
1
1
1
1
1
1
1
1
1
1
1
1
1
1
1
1
1
1
1
1
1
0
1
0
0
        </DataArray>
        <DataArray type="Float64" Name="density" format="ascii">
999.2818866812922
1003.312322455742
998.0665462457337
998.0665463331529
998.8923266218553
1001.978959410256
1001.978959440239
1000.863823263692
1001.850991499148
1001.850991543899
1002.608991064965
1002.608991051409
997.7787712736825
997.7787712657547
1002.157574734552
997.7787712361096
995.9387083776131
995.9387084105596
999.17996962272
994.5333064032319
994.533306680357
999.1799696692659
997.6641555794145
997.6641555204329
1002.65243834224
999.5001755889339
999.5001756057508
999.5001756076761
999.6073634150428
1001.257933284804
1001.257933329459
999.6073634082233
999.6073633817762
1002.255189487509
999.9228337781209
1001.257933308833
1001.523274071883
999.6073633668788
1003.174537737381
999.5088457265396
999.1358217288266
999.1358217194521
1001.78085483574
1004.403734055498
997.8775331246169
997.8775330715052
1001.78085481211
1001.780854815332
999.3099021282353
999.3099021370394
999.3099021458863
999.5720204984065
1004.403734113713
1003.90283419794
1024.554737573325
1024.554737352744
1008.658833816961
998.6508829230976
986.9589773353358
1000.859616468384
1000.859616402599
1001.106708793086
1000.605912448763
1004.199387737557
994.4928925056904
1021.096484720357
1019.777041927389
1002.855914552531
996.7828113051917
1000.442650496352
1001.176277821569
1002.425019016522
998.1986763507107
998.1986763571387
1000.949336438832
1001.827761533316
1001.827761554807
999.9800824778965
1005.026057973629
998.8290919028201
995.2665595596823
1001.827761578107
993.9597456910632
993.9597456839653
997.1836110951302
998.2208940864248
998.2208940863596
998.2208940606104
994.0714569321023
991.6133400620026
994.071456984059
1004.725645657548
1002.769185177212
988.7064996824063
1002.030723922908
998.2208940773241
1003.890378603359
1003.890378620735
999.8886045540194
992.7535617242166
999.8886045617805
1003.612207386871
993.3820934808447
993.3820934462718
993.3820934298676
1001.571347177353
1001.571347189333
1000.734529705988
1000.781515871747
1000.998774257601
1002.601355816637
1002.601355816617
997.3137172058985
1001.929804523344
1002.807659002602
1001.929804550767
1002.754070061388
1002.75407004305
998.3030361865533
999.5477332066947
1002.754070028288
992.9130626486991
992.9130626387779
992.9130625803261
995.2665595161611
994.2955800083832
994.2955800216979
994.2955799975463
1005.026057950032
994.5459015375772
999.00591604295
999.0059160245157
997.6337500356725
997.633749924227
1000.499831993446
996.148740616203
994.5459014861972
1000.499831985241
999.7302990943898
1002.807658958447
998.329158858782
1003.453248853463
1003.453248896428
999.8615821437429
1003.453248837389
1006.084410473383
1006.084410566399
1002.601355781823
997.0150454254189
1004.110902969806
1004.110903058074
999.1224797016498
999.4036700065329
995.9387084253461
999.9987467804732
1000
1000.018135257565
998.7180297841239
999.9987467998852
1002.725112647962
1002.725112628265
998.3815033925779
1002.807659047592
1005.367179146473
1005.367179197242
1005.367179231425
1002.769185223869
993.6111145211919
1003.424329727875
999.8886045901697
997.8835770521355
1000.041938998478
1000.659177299376
1004.826136908888
1001.763145529252
1000.078946047147
1000.078946080887
1000.078946038243
1002.538837315771
1001.133679329729
1002.838459029787
999.4720527982271
999.4720528163181
1002.538837288028
1009.203460199732
1002.538837280217
1001.653892281936
1000
1000
998.7992483329828
997.6653175471256
1001.65389227788
1001.653892263622
1001.653892239506
1003.366709560133
1000
1000
1001.399146322269
996.2360340783443
1003.36670968385
998.8923266688805
998.8923266840275
1003.366709676457
1000
1000
1001.763145466522
999.3342997788778
1000.163888102825
1000.163888092403
1000.163888118647
1002.263333592261
1000
1000
999.403670039221
998.3815031856618
1002.263333589118
1002.263333546856
997.6576569836301
999.5477332169181
1003.322700100574
1003.322700080083
1003.322700044864
1005.129623568027
1005.129623528602
1009.564292836233
1009.564292860403
1009.564292794368
1001.176277749586
994.5459014801952
1009.564292803407
1002.263333569394
999.3056668131396
1001.909826455362
1001.909826507542
1003.213295257546
990.5721804175816
1001.41525514886
1002.107543885487
1000
1000
999.2829840137275
1003.213295307636
996.2693838140622
993.4671488432245
1006.991835245985
994.552952375883
1013.387880342217
1001.954948032938
986.9589774087772
1001.811000847171
1006.478025352604
1006.478025320845
988.7064996766048
988.7064996876533
998.6508829888606
998.6508829004642
992.7535616989489
1000.453781067815
1000.45378108577
998.6744150791653
997.5502188123241
1001.469259471085
992.691324132156
1004.118435494014
1000.453781127879
1005.866973512891
1005.902803165236
1001.543113505591
993.6139394666723
997.1991089413228
1001.486748146458
998.8359661229318
1001.517834264391
1005.902803193971
998.3332095535195
1008.992504286242
1008.992504288269
998.6915472506701
990.5999644654912
969.8698024755837
998.6915471603128
1002.912699042087
1001.446858751938
993.4075185401061
998.8359660910971
998.6915470743385
1002.261499482509
1002.261499466693
993.4075183687878
1002.261499488052
993.6111145218317
1001.106708862531
1002.030724027995
999.1896296875672
1004.511049788637
995.2665595832269
1003.174537770914
1001.921487372804
990.5999643845174
991.0715550169067
998.6744152439011
1000.42082710479
1000.420827089681
1004.583076300656
994.6953731037004
994.6953730788213
997.5502188229791
1002.305882948667
1002.305882890467
1001.914313710298
1007.648971803748
1001.914313666606
994.5529523960678
1002.079176502237
1001.805791661526
992.6913241280943
992.6913241643451
1003.916428520179
1003.213295343077
996.8890422288429
996.8890422551344
996.88904222567
1002.07917642151
998.3030362116169
998.3030362253859
1008.049912980659
1008.049912985886
1000
1000
1000
1000
1000
998.1182264316994
998.1182264614276
1003.916428438479
997.4301007638645
997.429599687155
1000
1000
1001.543113486209
988.7064996784871
1000
995.8510594915919
1000
1000
996.1487406962935
1005.384438533717
1001.133679244196
1002.838458983425
997.4261453309159
992.3979618150489
993.2949363515426
1000.372506742272
1014.762452387692
1000.041938993794
1001.074335936195
994.2955800692232
1001.805791732371
999.6594169879424
997.6725400315145
1004.725645676112
994.9022686689509
994.9022687727775
1002.053364260872
1001.469259541615
1006.041149356819
1003.312322366304
998.1221200115322
1000
1000
1000
1001.978959406933
999.5001756268578
997.8835770850939
1000
1000
997.8279917424654
1000
1003.612207308832
1000
994.5459015556454
1018.877729349335
1024.554737361328
1021.096484720092
1000
992.7535617134531
1000
1000
1024.554737488778
998.3233246109966
999.2829839769965
999.2829840697946
1001.44685869855
969.8698024093236
993.4075184415306
993.4075186097518
998.122119908628
1000
1009.552550572218
1000
1013.387880223183
1009.552550722439
1004.606725047918
1004.606725287868
1004.118435279853
969.8698022346814
1001.5232740414
1006.041149506084
1014.76245255262
1018.877729372252
998.3233246002765
993.6139396145005
997.1991089393744
999.2829839825899
1003.424329815392
998.706984627186
995.8510595373816
1008.049912962206
1001.522407914724
1003.213295294078
1005.90280320699
1006.991835257824
1008.992504336929
998.3233246309745
1001.446858758981
997.4301007106824
1002.261499494244
999.5088458054462
1018.877729382347
997.8279916910627
997.8279916593013
998.7180297669164
994.5529524466971
1006.991835277667
997.4261453595759
994.4928925204192
999.0568110925154
999.0568110668653
998.8259917781515
998.8259917548995
1004.826136928533
1004.826136892154
1001.367600875526
993.6139394737205
1000
1000
997.55021878523
995.9387084320327
1001.133679281959
999.4906434275472
1000.041938989066
1000
1003.612207300889
1002.079176457919
994.5333069222681
994.533306246425
1001.533262143644
1019.77704191916
1000.734529744112
1000.01813525752
1000.65917731123
1002.83845903808
1000
1000
992.691324147816
1021.096484727745
1003.916428467798
1001.533262172552
996.8890421848341
997.1991088793992
1001.52327401774
994.4928925525138
993.6139395513296
999.9228338399429
998.3030361712562
1002.718823334459
1000
1000
1001.133679314501
1000.041939003271
1000
1003.612207358483
1021.096484726026
1006.639412404631
1002.157574687197
987.8089921143094
987.8089922757239
1000.391599418196
1000.391599341823
999.9800827264413
997.8641864138906
997.8641856024971
1008.049912945463
992.8848733695086
992.8848724453047
1001.729887712659
1000.521701153054
1000.521701548228
998.9140407867117
998.9140404517636
1000.630228647822
1003.245653423109
1006.672691569357
1002.142612205339
995.2179642240623
1004.924641264389
999.0571615300289
1001.494345966057
999.5757035122112
999.5238257502876
1000.968148235128
999.5757033618038
1001.132869875803
998.9886299525255
1001.132870274828
1001.494345762323
999.657239515423
997.7807676193274
999.6572394844984
999.0571617614428
997.1937974359043
1001.837956406522
1000.574152928359
999.8613035678126
1001.837956262265
997.1937970503249
995.217964347901
1004.606725227235
1003.018671369947
993.2949365197026
1000
1004.606725065628
1000
1000
1000
1000
1000
1000.016620329807
1000
1000
1000
1000
1000
1000.129982473085
1000
1000
1000
1000
1000
1000.109695459427
1001.340180242485
1003.629507031137
1001.915835473211
1000.722123574818
1000.157410064708
1000.082739406401
1002.433289755218
1001.928614771411
1001.042307475081
1000.225895151343
1000.113504476886
1000.297583362149
1000.65917726469
1000.687838211197
1002.095957161756
1000.316146124904
1000
1000
1000.381641467201
993.5720110679033
1000.018135253022
1000
1000.166392858998
1000.938581203581
1000.224945821356
1000.804100898134
1002.690955222987
1001.802712114093
1001.802712276433
1006.453086069812
1004.403734106991
1000.1527202052
1000.734529739188
1000
1000.032677429493
1002.718718678246
1002.518851415887
1000.379082600841
1001.162951566929
1015.939026204865
1013.98702385032
1008.609467842565
1023.351531864518
1004.551973656722
1000
1000.127419556593
1000
1000.032677415184
1002.718718706525
1002.518851241581
1000.379082676683
1001.162951672229
1001.74693785789
1000
1000.166392832439
1000.938581194876
1000.224945613052
1000.804100767446
1002.690955281283
1003.195677759879
1000.687838238347
1002.09595707058
1000.31614605878
1000
1000
1000.381641642953
1000.588295314814
1002.43328977041
1001.928614763298
1001.042307444991
1000.225895158486
1000.113504499813
1000.29758338796
1000.419123986521
1001.340180262772
1003.62950708683
1001.915835529603
1000.722123619795
1000.157410082209
1000.082739407662
1000.066352005386
996.3657636144302
1000
1000
1000
1000
1000
1000.109695459709
1000.084744281466
1000.949336542535
994.0714569850137
1002.561542179788
1001.511105905846
1000
1000
1000.129982474682
1000.412676931129
994.0714570457088
992.3979616979613
1002.425019112839
1000
1000
1000.016620332241
1001.830926053639
996.6033249758032
1001.356167096712
1001.733954090295
999.3564777231674
1009.552550799142
996.6033250166223
1000.998774274068
999.2818867531429
1000.467361878726
995.190767516595
1000.372506768929
1001.486748058974
996.3657634954893
1001.486748158352
997.226800082209
997.2268002979878
1003.245653119938
1000
1004.551973629901
1023.351532025327
1008.609467943977
1013.987023593351
1015.939026007702
1019.777041852727
993.2750487245826
1003.457488898294
1005.125423728721
996.031547555046
998.975813720464
999.2944226836911
999.294422706157
998.9758134109769
996.0315477515871
1005.125423769773
1003.457488627007
997.426145441726
999.0603185573718
999.6594169917265
997.3137172118127
993.9597456779326
981.5982484398855
1002.053364326194
995.8985591493978
1001.780854830402
999.2468130833049
992.3979617759697
1004.403734068012
1001.517834103745
992.6216353020592
1000.37250662044
1005.384438588656
1008.658833813261
1002.426406645212
1006.45308603552
997.3137173150321
997.6725401136074
991.0715550943762
990.6116327364492
992.6216352657101
1002.157573811724
998.5350717745399
1001.074336008179
1007.64897169078
990.6116327286735
1001.52985284063
1001.529852846037
988.436617334983
1004.199387623502
1018.890692224638
981.5982482968913
1018.890692133667
1002.534943606777
995.8985590153834
999.0603186016212
997.827991587363
1002.426406751695
999.5623495252079
998.3332095660375
998.2571309655816
1002.107543937921
1001.415255084751
997.6576569864485
993.467148872236
1000.217504617021
998.8359661298252
1001.954948012829
996.2693837779715
999.3342997925242
999.5623495193033
1001.399146373951
997.0478663588007
1006.905905955348
1006.157629524058
1002.255189516431
998.4885061158054
1000.442650448475
999.0585874853634
1002.169184913231
998.1687623486439
999.4036700424357
996.7828112899492
996.5010007833631
1003.258621057757
1002.16918492997
998.0025450183319
1003.01867141609
1002.019434255343
997.396227096515
1000
1000
1000
1000
1000
1000
998.2571309963133
1001.733954123885
1001.35616708766
1001.68056601616
998.2571309482787
998.8291514144516
998.1687623707236
999.0585875733486
998.3332095611958
1006.990994387995
999.3564777883071
1002.861208580495
998.7069845229859
1001.361746473817
1000
1001.522407950907
1000.52380893751
1002.855914577094
1000
1000
993.4671488571958
1000.307823976846
996.2360340625236
1001.708564238364
1000
999.8615821488963
993.4671488722637
1002.718823326275
1003.258621037614
1004.118706392293
999.508845787512
1006.990994433883
1000
1000.863730289094
1001.415255122742
999.5586393550905
998.4226004592751
1000.523808998417
1000.442650532599
1002.019434203122
1002.545168129713
1000.949336480524
1000
1001.733954167177
1001.356167062021
1002.718823317716
1000.523808956882
1002.545168143356
1000
999.5720205133018
1000
1000
997.6576569506344
999.2834282614826
1000
1000.72188569809
1001.680566013802
1002.54516815601
1000.0701084774
1000
1000
1000
1000.781515905736
997.6653176107919
1000
998.8291513927196
1000.863730308857
1000
1000
1001.932117389502
1000
1000
1000
1001.954948020881
1000
1000
1004.915229542389
999.1079113391137
1000
998.4885061482257
1002.107543898727
1000.217504693626
1000
1000
1000
1000
1001.93211734339
1000
1000
1000
1000
1000
1000.325853038655
996.5253473926143
1002.425019055842
1002.373818863375
1000
996.5253473965539
1000
1000.998774278287
1000
1000
998.7992484020775
1000.32585308777
1002.10754395885
1001.39914629714
1002.019434223666
1002.255189497805
999.562349506724
999.5222929890928
999.5222930858362
1000.467361828889
999.5477332258359
1000.952708976558
1004.061557053334
1000
1000
994.0768083222749
994.0768082687014
998.2571309842114
1001.106708805347
1006.905905962011
1000
1000.21555703893
1000
1003.571696695503
1001.36174642455
1001.485964975273
1001.485965023624
999.2834282840302
1000
1000
1000.646040536754
1000.646040539497
1001.090497765458
1001.090497776536
1006.157629569941
1006.90590595458
1006.990994393125
998.8359661399285
1003.430943954854
1000.863730287131
1002.255189455604
1000.781515889461
1006.905905938225
1001.522407942086
999.5053052183081
999.5053052438894
999.6067460549361
1001.763145499272
1001.680566000166
1001.176277758215
1000
1000
998.3815033723452
1004.118706441899
999.1079113060613
1000
1000.78151584763
996.482225595857
1001.020813618595
999.9456410072866
999.2818867477438
997.7705402511458
996.3013824227303
1001.020813666885
1001.763145475894