<VTKFile type="PolyData" version="1.0" byte_order="LittleEndian" header_type="UInt64">
  <PolyData>
    <Piece NumberOfPoints="1037" NumberOfVerts="1037">
      <Points>
        <DataArray type="Float64" Name="Points" NumberOfComponents="3" format="ascii">
0.08215638296093261 0.12913721196296 0.005583940700228584
0.04591314054960076 0.1240868482841124 0.02128135561865734
0.07782379105438009 0.1346486198891866 0.0009654601723571595
0.03159731127253156 0.1384026888073969 0.0441999840626249
0.03323609565691359 0.1367639043266171 0.04360129710202928
0.0320674659356532 0.1379325335546114 0.003224042889265294
0.03009624056498647 0.1399037594701585 0.04430168868934062
0.1210082719627529 0.132541792055854 0.02137211949488878
0.03475235109644845 0.1352476487249982 0.04248089940316994
0.1431477096625224 0.1341313348511277 0.04033619317066971
0.1341313349342828 0.1431477097513078 0.04033619311656014
0.0374582065035859 0.121008271889391 0.02137211970282009
0.05995277904306831 0.1100472209903503 0.01687114840989363
0.03856542628295406 0.1314345734121085 0.03644188293855195
0.1399037594263073 0.1399037594015781 0.0443016889833616
0.0311275776811714 0.130893395216468 0.03780998232616804
0.0445273864219214 0.1182663139610319 0.01760036689815431
0.07053455839189322 0.1125396514299339 0.01340007117825843
0.05473206199424197 0.1200610362528313 0.01447952490932094
0.1320418093752044 0.143635739345023 0.03689250722692543
0.1187050650958423 0.131469840007257 0.0174462246384028
0.1225890317704539 0.1402645024403003 0.0228166211875397
0.008186842105263157 0.1618131578947369 0.08676538461538462
0.03980360797170321 0.1301963919127214 0.03355655340078711
0.02481219644658973 0.1451878036013391 0.04159161799808876
0.0385301596975073 0.1187050651661927 0.017446224900284
0.03795819061992051 0.1436357396127622 0.03689250703392819
0.1436357393972286 0.1320418094348586 0.03689250742242457
0.1262041561768509 0.1399168957162898 0.02758561452234889
0.02636426038205497 0.1320418094271371 0.03689250695224821
0.04147398289610258 0.1285260157197304 0.03010958766235291
0.05409642768329878 0.1096918649536745 0.009505540688017197
0.1105059632756414 0.1338099512479299 0.005548306831347304
0.04433421052631578 0.1618131578947369 0.08676538461538462
0.008186842105263157 0.1437394736842105 0.1042884615384616
0.008186842105263157 0.1527763157894737 0.1042884615384616
0.02626052631578947 0.1618131578947369 0.1042884615384616
0.03529736842105263 0.1618131578947369 0.09552692307692309
0.008186842105263157 0.1437394736842105 0.09552692307692309
0.06985393086510408 0.1109222716667845 0.004650343672674826
0.03910660484491004 0.1388724223392941 0.03780998232652004
0.07631254845044623 0.1042304843334081 0.003847183736373609
0.116628947368421 0.1618131578947369 0.07800384615384616
0.04057962493631636 0.1294203764164711 0.02816267443133268
0.1296493820108719 0.1296493827715578 0.009170185414338984
0.1205929989248119 0.1355528234173473 0.001294327296493646
0.008186842105263157 0.1256657894736842 0.08676538461538462
0.1522991480712105 0.1389461288508389 0.03000127004263822
0.138946128205353 0.1522991480236622 0.03000127000476196
0.008186842105263157 0.1618131578947369 0.1042884615384616
0.1234371293470143 0.1449310859460892 0.01371539330086725
0.145187803558474 0.1451878035437773 0.04159161828541449
0.1523764724343456 0.1415688072380102 0.02637005939114128
0.147276228558032 0.1472762285952392 0.03875866497202305
0.1075921052631579 0.1618131578947369 0.07800384615384616
0.1415688068730374 0.152376472498398 0.02637005958869426
0.01722368421052631 0.1618131578947369 0.1042884615384616
0.03529736842105263 0.1618131578947369 0.08676538461538462
0.116628947368421 0.1618131578947369 0.0692423076923077
0.1075921052631579 0.1618131578947369 0.0692423076923077
0.116628947368421 0.1618131578947369 0.06048076923076924
0.1075921052631579 0.1618131578947369 0.06048076923076924
0.116628947368421 0.1618131578947369 0.05171923076923078
0.04433421052631578 0.1618131578947369 0.1042884615384616
0.05337105263157894 0.1618131578947369 0.08676538461538462
0.1075921052631579 0.1618131578947369 0.05171923076923078
0.116628947368421 0.1618131578947369 0.04295769230769231
0.1075921052631579 0.1618131578947369 0.04295769230769231
0.07751649065837023 0.1192719512311689 0.003927065190800748
0.116628947368421 0.1618131578947369 0.03419615384615385
0.08048157894736842 0.1618131578947369 0.007911538461538463
0.1075921052631579 0.1618131578947369 0.03419615384615385
0.08048157894736842 0.1618131578947369 0.01667307692307693
0.116628947368421 0.1618131578947369 0.02543461538461539
0.1075921052631579 0.1618131578947369 0.02543461538461539
0.116628947368421 0.1618131578947369 0.01667307692307693
0.1075921052631579 0.1618131578947369 0.01667307692307693
0.116628947368421 0.1618131578947369 0.007911538461538463
0.1075921052631579 0.1618131578947369 0.007911538461538463
0.08048157894736842 0.1618131578947369 0.02543461538461539
0.06240789473684209 0.1618131578947369 0.1042884615384616
0.08048157894736842 0.1618131578947369 0.03419615384615385
0.07144473684210526 0.1618131578947369 0.04295769230769231
0.08048157894736842 0.1618131578947369 0.04295769230769231
0.07144473684210526 0.1618131578947369 0.05171923076923078
0.08048157894736842 0.1618131578947369 0.05171923076923078
0.07144473684210526 0.1618131578947369 0.06048076923076924
0.08048157894736842 0.1618131578947369 0.06048076923076924
0.06240789473684209 0.1618131578947369 0.09552692307692309
0.05337105263157894 0.1618131578947369 0.09552692307692309
0.03529736842105263 0.1618131578947369 0.1042884615384616
0.02626052631578947 0.1618131578947369 0.08676538461538462
0.01722368421052631 0.1618131578947369 0.08676538461538462
0.008186842105263157 0.1256657894736842 0.1042884615384616
0.07430403179296369 0.1289307210367041 0.0104680764967809
0.02626052631578947 0.1618131578947369 0.09552692307692309
0.1384026889057448 0.1384026887703153 0.04419998436914471
0.05140458169142469 0.1185954171700632 0.01802739874862991
0.05173368588757268 0.1254726144161762 0.01760036700791557
0.04899172784570598 0.1325417919845279 0.02137211992465783
0.05553726356236906 0.123142059260834 0.01208616095112369
0.0512949341695095 0.1314698399344649 0.01744622559819525
0.01722368421052631 0.1618131578947369 0.09552692307692309
0.008186842105263157 0.1527763157894737 0.09552692307692309
0.008186842105263157 0.1618131578947369 0.09552692307692309
0.1256657894736842 0.1618131578947369 0.007911538461538463
0.1347026315789474 0.1618131578947369 0.007911538461538463
0.1437394736842105 0.1618131578947369 0.007911538461538463
0.1527763157894737 0.1618131578947369 0.007911538461538463
0.1618131578947369 0.1618131578947369 0.07800384615384616
0.1618131578947369 0.1527763157894737 0.07800384615384616
0.1618131578947369 0.1437394736842105 0.07800384615384616
0.1618131578947369 0.1347026315789474 0.07800384615384616
0.008186842105263157 0.1347026315789474 0.1042884615384616
0.1618131578947369 0.1618131578947369 0.0692423076923077
0.1618131578947369 0.1527763157894737 0.0692423076923077
0.1618131578947369 0.1437394736842105 0.0692423076923077
0.1618131578947369 0.1347026315789474 0.0692423076923077
0.06240789473684209 0.1618131578947369 0.08676538461538462
0.1618131578947369 0.1618131578947369 0.06048076923076924
0.1618131578947369 0.1527763157894737 0.06048076923076924
0.1618131578947369 0.1437394736842105 0.06048076923076924
0.1618131578947369 0.1347026315789474 0.06048076923076924
0.1618131578947369 0.1618131578947369 0.05171923076923078
0.1618131578947369 0.1527763157894737 0.05171923076923078
0.1618131578947369 0.1437394736842105 0.05171923076923078
0.1618131578947369 0.1347026315789474 0.05171923076923078
0.1256657894736842 0.1618131578947369 0.01667307692307693
0.1618131578947369 0.1618131578947369 0.04295769230769231
0.1618131578947369 0.1527763157894737 0.04295769230769231
0.1618131578947369 0.1437394736842105 0.04295769230769231
0.1618131578947369 0.1347026315789474 0.04295769230769231
0.1347026315789474 0.1618131578947369 0.01667307692307693
0.1618131578947369 0.1618131578947369 0.03419615384615385
0.1618131578947369 0.1527763157894737 0.03419615384615385
0.1618131578947369 0.1437394736842105 0.03419615384615385
0.1618131578947369 0.1347026315789474 0.03419615384615385
0.1618131578947369 0.1618131578947369 0.02543461538461539
0.1618131578947369 0.1527763157894737 0.02543461538461539
0.1618131578947369 0.1437394736842105 0.02543461538461539
0.1618131578947369 0.1347026315789474 0.02543461538461539
0.1618131578947369 0.1618131578947369 0.01667307692307693
0.1618131578947369 0.1527763157894737 0.01667307692307693
0.1618131578947369 0.1437394736842105 0.01667307692307693
0.1618131578947369 0.1347026315789474 0.01667307692307693
0.1618131578947369 0.1618131578947369 0.007911538461538463
0.1618131578947369 0.1527763157894737 0.007911538461538463
0.1618131578947369 0.1437394736842105 0.007911538461538463
0.1618131578947369 0.1347026315789474 0.007911538461538463
0.04741096826194885 0.1402645023645904 0.02281662146712919
0.1437394736842105 0.1618131578947369 0.01667307692307693
0.1527763157894737 0.1618131578947369 0.01667307692307693
0.1256657894736842 0.1618131578947369 0.02543461538461539
0.1347026315789474 0.1618131578947369 0.02543461538461539
0.1437394736842105 0.1618131578947369 0.02543461538461539
0.1527763157894737 0.1618131578947369 0.02543461538461539
0.1256657894736842 0.1618131578947369 0.03419615384615385
0.1347026315789474 0.1618131578947369 0.03419615384615385
0.1437394736842105 0.1618131578947369 0.03419615384615385
0.1527763157894737 0.1618131578947369 0.03419615384615385
0.1256657894736842 0.1618131578947369 0.04295769230769231
0.1347026315789474 0.1618131578947369 0.04295769230769231
0.1437394736842105 0.1618131578947369 0.04295769230769231
0.1527763157894737 0.1618131578947369 0.04295769230769231
0.1256657894736842 0.1618131578947369 0.05171923076923078
0.1347026315789474 0.1618131578947369 0.05171923076923078
0.1437394736842105 0.1618131578947369 0.05171923076923078
[...]
      <PointData>
        <DataArray type="UInt64" Name="type" format="ascii">
1
1
1
1
1
1
1
1
1
1
1
1
1
1
1
1
1
1
1
1
1
1
0
1
1
1
1
1
1
1
1
1
1
0
0
0
0
0
0
1
1
1
0
1
1
1
0
1
1
0
1
1
1
1
0
1
0
0
0
0
0
0
0
0
0
0
0
0
1
0
0
0
0
0
0
0
0
0
0
0
0
0
0
0
0
0
0
0
0
0
0
0
0
0
1
0
1
1
1
1
1
1
0
0
0
0
0
0
0
0
0
0
0
0
0
0
0
0
0
0
0
0
0
0
0
0
0
0
0
0
0
0
0
0
0
0
0
0
0
0
0
0
0
0
0
0
0
0
0
1
0
0
0
0
0
0
0
0
0
0
0
0
0
0
0
0
0
0
0
0
0
0
0
0
0
0
0
0
0
0
1
1
1
1
1
0
1
0
0
0
1
1
0
0
0
1
0
1
1
1
1
1
1
1
1
1
1
1
1
1
1
1
1
0
1
0
1
1
0
1
1
1
1
1
1
1
1
0
1
1
1
1
1
1
1
1
1
1
1
0
1
0
1
1
1
1
1
1
1
1
1
1
0
0
1
1
1
1
1
0
1
1
1
1
1
1
1
1
1
0
1
1
1
1
1
1
1
0
1
1
1
0
1
0
0
1
0
0
1
1
1
0
0
0
0
1
1
1
1
1
1
1
1
1
1
1
1
0
1
1
1
1
1
1
1
1
1
1
1
0
1
1
0
1
0
0
0
0
0
0
0
0
0
0
0
0
0
0
0
0
0
0
0
0
0
0
0
0
0
0
0
0
0
0
0
0
0
0
0
0
0
0
0
0
0
0
0
0
1
0
0
0
0
0
0
0
0
0
0
0
0
1
0
0
0
0
1
0
0
0
0
1
0
0
0
0
1
1
1
0
0
0
0
0
0
0
1
1
0
1
0
0
0
1
0
0
0
0
0
0
0
0
0
0
0
0
0
0
1
0
0
0
0
0
0
0
0
0
0
0
0
0
0
0
0
0
0
0
0
0
0
0
0
0
0
0
0
0
0
0
1
1
1
0
0
1
1
0
0
0
0
0
0
0
0
0
0
0
0
0
0
0
0
1
0
0
0
0
0
0
0
1
1
1
1
1
1
1
1
1
0
0
0
0
1
1
1
1
1
1
1
1
0
0
0
0
0
0
0
0
1
1
1
1
1
1
1
1
1
1
1
1
1
1
1
1
1
1
1
1
1
1
1
1
1
1
1
1
1
1
0
0
0
0
1
0
0
1
0
0
0
1
1
1
1
1
1
1
1
1
1
1
1
1
1
1
1
1
1
1
1
1
1
1
0
1
1
1
1
1
1
0
0
0
0
0
0
0
0
0
0
0
0
0
0
0
1
1
1
1
0
0
1
1
1
1
1
1
1
1
1
1
1
1
0
0
0
0
0
0
0
1
1
1
1
1
1
1
1
1
1
1
1
1
1
1
1
1
1
1
1
1
1
1
1
1
1
1
1
1
1
1
1
1
1
1
1
1
1
1
1
1
1
1
1
1
0
0
0
0
0
0
0
0
1
1
1
1
0
0
0
0
0
0
0
1
0
1
1
1
0
1
1
1
1
1
1
1
1
0
0
0
0
0
0
0
1
0
0
0
0
0
0
0
1
0
0
0
0
1
1
0
0
0
0
1
0
0
0
0
0
1
1
1
1
1
0
0
0
0
0
0
0
1
1
1
0
0
0
0
0
0
0
0
0
0
0
0
0
0
0
0
0
0
0
0
0
0
0
0
0
0
0
0
0
0
0
0
0
0
0
0
0
0
0
0
0
0
0
0
0
0
0
0
0
0
0
0
0
0
0
0
0
0
0
0
0
0
0
0
0
0
0
0
0
0
0
0
0
0
0
0
0
0
0
0
0
0
0
0
0
0
0
0
0
0
0
0
0
0
0
0
0
0
0
0
0
0
0
0
0
0
0
0
0
0
0
0
0
0
0
0
0
0
0
0
0
0
0
0
0
0
0
0
0
0
0
0
0
0
0
0
0
0
0
0
0
0
0
0
0
0
0
0
0
0
0
0
0
0
0
0
0
0
0
0
0
0
0
0
0
0
0
0
0
0
0
0
0
0
0
0
0
0
0
0
0
0
0
0
0
0
0
0
0
0
0
0
0
0
0
0
0
0
0
0
0
0
0
0
0
0
0
0
0
0
0
0
0
0
0
0
0
0
0
0
0
0
0
0
0
0
0
0
0
0
0
0
0
0
0
0
0
0
0
0
0
0
0
0
0
0
0
0
0
0
0
0
0
0
0
0
0
0
0
0
0
0
0
0
0
0
0
0
0
0
0
0
0
0
0
0
0
0
0
0
0
        </DataArray>
        <DataArray type="Float64" Name="density" format="ascii">
997.9250684084365
1000.21018323886
997.4136959635019
1001.158435961046
1000.53248598335
999.5446887996603
1001.049142267116
1000.655222021288
1000.394980276597
1000.440236038116
1000.440237628962
1000.655220996455
1001.964746834795
997.6711815396574
1001.049141844323
999.7911769433823
1001.220367850876
997.5609241915868
999.2243099320455
1000.620650098232
1000.774395485434
997.1434552554178
1000
996.7184444134602
997.8104811303144
1000.774394215427
1000.620647575589
1000.620647938384
1001.208315882735
1000.620651184311
996.5244882084944
1000.285565871065
1001.851459864914
1000
1000
1000
1000
1000
1000
1001.147754721266
999.7911748290639
1000.78163526951
1000
1000.364269627896
995.2713098602192
999.1700181778656
1000
998.651415870661
998.6514154074848
1000
1000.412123532312
997.8104802469495
999.493749652946
1000.225343821773
1000
999.4937488655008
1000
1000
1000
1000
1000
1000
1000
1000
1000
1000
1000
1000
1001.46424297721
1000
1000
1000
1000
1000
1000.177101604878
1000
1000.922098267118
1001.571894771231
1000.439654916175
1000
1000
1000
1000
1000
1000
1000
1000
1000
1000
1000
1000
1000
1000
1000
1000.365830538098
1000
1001.158435970031
1000.269732857288
1001.220368516578
1000.655219298155
999.6554520045564
1000.774394558482
1000
1000
1000
1009.192691481739
1015.586839381031
1000
1000
1000
1000
1000
1000
1000
1000
1000
1000
1000
1000
1000
1000
1000
1000
1000
1000
1000
1000
1000
1000
1000
1000
1000
1000
1000
1000
1000
1000
1000
1000
1000
1000
1000
1000
1000
1000
1000.001354120049
1000
1000
1015.586840306084
997.1434544530994
1000
1000
1000
1000
1000
1000
1000
1000
1000
1000
1000
1000
1000
1000
1000
1000
1000
1000
1000
1000
1000
1000
1000
1000
1000
1000
1000
1000
1000
1000
1000.436691891765
999.7356475635589
999.4258494838289
998.7908242751677
998.790824082586
1000
999.7911753944194
1000
1000
1000
999.7911766930573
997.4778343227885
1000
1000
1000
999.6059420955772
1000
1001.944990794859
999.8456326596311
999.8456343018184
1004.301328437009
1001.392379566406
998.649418583415
1000.365831205017
1002.094174067444
1002.094174259777
999.5446888190309
1001.694327791895
996.2601113593089
1000.285568870377
1004.603952464768
1002.502940985898
1002.502942110193
1000
1000.635450784452
1000
1002.010801880364
1000.398941354321
1000
1000.597414305956
996.4121306167173
1000.440238585882
1003.450614014559
1002.517660391954
1002.517661347571
999.6059412457029
1001.208315547031
1000
996.0320133825468
990.6890739826752
999.42357376103
1001.944992378185
998.2457789421348
1000.164941704937
1000.403139400307
1000.440235958505
1000.635450159743
998.7126875753097
998.763047886179
1000
996.9243332568284
1000
1000.662342030706
1003.200761581815
999.3878742417351
999.3878721943247
999.170017603306
1000.662342585669
1001.254017521062
1000.662339959596
999.0976844892883
1000.705881265952
1000
1000
1000.780129101169
1002.026682519295
999.0976822085216
1000.780128180857
995.8195823844889
1000
997.3026113430183
995.8195812189061
1001.464242667172
1000.705886780935
1004.906802464588
1000.705883427199
991.7921362963087
993.2572155794605
1000.597413635428
1000
998.8049369510614
995.8195818879183
997.6711818856284
993.2572172978661
996.9243337075345
995.8195807812554
1000.780128932359
1000
998.7908228407977
998.8049363048024
1000.780127862743
1000
997.4778387022675
1000
1000
997.9250727996551
1000
1000.000628546085
997.4136951053677
999.7129621228581
1001.392379987094
1000
1000
1000
1000
999.0976822457447
998.7630479595613
996.5244886419115
999.097683975136
998.2457798373564
1000.662339139488
998.7908229517199
996.4121314332555
1002.517658816345
1002.517659975715
1000.403140658931
1002.010800176389
1000
1004.603950175619
998.651414904664
1000.225343592821
1004.906803854081
998.6514143775764
1000.398940574562
1000.938134786989
999.17001441913
1000.705886009992
995.2713176396354
1000.781635953134
1000
1002.026679009203
998.6494180476762
1000
1000.412125034099
1000
1000
1000
1000
1000
1000
1000
1000
1000
1000
1000
1000
1000
1000
1000
1000
1000
1000
1000
1000
1000
1000
1000
1000
1000
1000
1000.17710209084
1000
1000
1000
1000
1000
1000.000628545852
1000.922098408578
1000
1000
1000
1000
1000
1000
1015.586839460792
1000
1000
1000.001354097813
997.3026101634443
1000
1000
1000
1000
1000
1000
1000
1000
1000
1000
1000
1000
1000.968901111188
1000
1000
1000
1000
1000.403140463819
1000
1000
1000
1000
999.3878735514407
1000
1000
1000
1000
999.3878710720336
1001.254018946269
996.718445199046
1000
1000
1015.586841147191
1009.192692458458
1001.571893679173
1000.439654666301
1000
999.4937474720151
999.4937487320727
1000
1001.851454809622
1000
1000
1000
1000.155029213347
1000
1000
1000
1000
1000
1000
1000
1000
1000
1000
1000
1000
1000
1000
1000.364268851108
1000
1000
1000
1000
1000
1000
1000
1000
1000
1000
1000
1000
1000
1000
1000
1000
1000
1000
1000
1000
1000
1000
1000
1000
1000
1000
1000
1000
1000
1000
1000
997.5609244645555
1001.147754088748
1003.450615337919
1000
1000
997.413695308468
1003.200760983366
1000
1000
1000
1000
1000
1000
1000
1000
1000
1000.000628548252
1000
1000
1000
1000
1000
1000
1000.365831264034
1000
1000
1000
1000
1000
1000
1000
997.925072433652
998.7630494072272
998.2457785364586
996.4121312094378
1002.094175427415
1002.094175395322
999.4258490104147
999.735650925075
1002.502940359578
1009.192692185941
1000
1000
1000
1001.208315697404
1002.502941911031
990.689082548186
1004.301329608653
997.3026112683386
1002.026681715857
993.2572155046989
1001.851459953232
1000.439655124765
1001.571895634013
1000.922099258119
1000
1000.177102448303
1000
1000
1000
1000.968904563129
996.26011200059
998.8049364627113
1001.25401686173
1002.010800997716
997.1434564147434
999.6554564841642
999.2243101075281
1000.412122702171
1000.436693416948
996.9243320552642
991.7921306469744
1004.906803305313
1000.412125073852
999.712960753413
996.924333936788
1001.147754196168
1001.220367715686
1000.655218690896
997.1434547661373
996.2601122448108
999.6554561446384
1000.774393378368
999.6554543503665
1003.45061460038
1001.220370054491
999.1700157329703
1001.254019362974
1001.964745438645
999.224310013509
1000
1000
1009.192691909895
1000
999.2243106116118
1000
1000
999.4235741380655
1000
1000
1000
1000.394980525621
997.5609241464167
1001.694327527933
996.412131019038
1000.164940924286
993.2572180685964
991.7921360696276
1000.285567054153
1004.906805016261
998.7126884775902
998.2457795518992
1000.403139002303
1002.010801242698
998.7630468127372
1000.968904257982
1000.269733574222
1000.210182469192
1002.026680049002
1000.532485989207
997.3026099725047
998.8049375205903
1000.938134416645
996.0320138622238
1000
997.5609237093983
996.2601122954956
1003.450614095067
1001.851455849939
1003.200761551091
1001.147754402589
1000.439654687131
1001.571893688103
1000.922097867793
1000
1000.177101507505
1000
1000
1000
1000
1000
1000
1000
1000
1000
1000
1003.200761013814
1000.285569263513
1000.968900940228
1000.155029108385
1000
1000
991.7921295148857
1001.208316154838
1000.781635629673
1001.392380077315
1001.392379458392
997.4136959466948
997.5609243535375
997.4778362864831
997.9250686392201
1001.14775502601
998.8049375108166
1003.450614128972
1000
1000.000628545753
1000
1000
1000
1000
1000
996.9243339367397
999.6059423055854
999.6059404213033
1001.464242728256
997.1434546269965
1001.464243026757
1000.781635386394
999.8456340622953
999.8456323964363
1001.944992146015
1001.944990389605
1003.200762060199
997.4778369686443
1000.36583120269
1000.655219009179
1000.412124887893
1000.938134423349
1000.285568812113
997.5609246291998
1000.285566888356
1001.964745551891
999.224310272803
1001.147754214157
1001.69432732607
1000.155028988565
998.712688078254
996.0320137841857
996.2601119918937
1000.269733637431
999.6554556742769
999.2243105125019
1000.210182629362
1000.164941205631
1000.968900535019
999.6554544650272
1000.403139272374
998.2457794338914
999.7129609483716
1000.774393690913
991.7921360474244
999.1700156744934
1001.851456547831
1002.02668010907
998.7630468001939
996.4121301343463
1000
1000
1000
1000
1000
1000
1000
1000
1001.22036812802
997.3026099250669
993.2572173860636
1004.906804589975
1001.571893648744
1000.439654699764
1000
1000.922097956045
1000
1000.177101643224
1000
1000.155029364888
1000
1001.147754729414
1000.365830852251
997.4778367379854
1000
997.4136956025759
1001.39237923607
999.8456338506697
999.8456335027929
1001.944991341054
999.6059407351191
1001.944991800895
1000.365830466115
1000
1000
1000
1000
1000
1000
1000
997.5609241587488
1000
1000
1000
1000
1000
1000
1000
997.9250709133963
1000
1000
1000
1000
997.9250704189041
1001.392378908764
1000
1000
1000
1000.000628548132
1003.200760887071
1000
1000
1000
1000
1000
1000.781635320523
997.477836046342
997.4136956825741
1003.450614408404
1001.464242583474
1000
1000
1000
1000
1000
1000.000628545576
1000
1001.464242678439
1000.781635503218
999.6059416361951
1000
1000
1000
1000
1000
1000
1000
1000
1000
1000
1000
1000
1000
1000
1000
1000
1000
1000
1000
1000
1000
1043.569128074452
1000.17080901659
1000
1000.170420880355
1000.13632136498
1048.888054130178
1000.245996872244
1000
1000
1043.569128355643
1038.273906429373
1000
1035.989621422856
1000
1000.170809018648
1038.273906121996
1000.136321364412
1000.170420880295
1000
1000.109934695151
1043.569127973607
1035.98962150184
1000.114227034512
1000
1000
1000.114227035067
1000
1000.24599688365
1048.888054277239
1001.252083604885
1000.245996885231
1000.109934695346
1000.051999332948
1000
1000
1000
1000.170420880506
1001.25208360838
1000
1000
1000
1000
1000
1018.07576619641
1000
1038.273906393673
1018.075766071889
1000.170809016434
1032.477782110512
1043.569128097458
1035.989621339468
1000
1000.170809015363
1000
1000
1000.051999333031
1000.245996879436
1043.569128220484
1000.000000603784
1000.109934695829
1000
1000.000000603784
1000
1000
1000.136321364885
1048.888054048972
1028.650048039913
1000
1000
1000
1000.109934696343
1035.989621463702
1028.650048012669
1000
1001.252083610297
1032.477782123813
1000.170420880239
1000
1000.136321363395
1000
1000
1000.000000603784
1043.569127918907
1000.170809015067
1000
1018.075766052182
1000
1032.477782178962
1000
1028.650048136501
1048.888054000735
1038.273906454181
1032.477782171429
1000.136321363125
1038.273906106077
1001.252083604358
1000
1000.114227034305
1000
1000.114227034757
1018.075766186899
1000
1000.170420880641
1000.000000603784
1035.989621372485
1028.650048139213
1000
1000.051999332843
1000
1000
1000.170809017554
1000
1000.245996886311
1000
1000.051999332941
1000
1000.245996870868
1000
1048.888054126578
1048.888054073544
1000
1000
1000
1000
1000
1000
1000
1000
1000
1000
1000
1000
1000
1000
1000
1000
1000
1000
1000
1000
1000
1000
1000
1000
1000
1000
1000
1000
1000
1000
1000
1000
1000
1000
1000
1000
1000
1000
1000
1000
1000
1000
1000
1000
1000
1000
1000
1000
1000
1000
1000
1000
1000
1000
1000
1000
1000
1000
1000
1000
1000
1000
1000
1000
1000
1000
1000
1000
1000
1000
1000
1000
1000
1000
1000
1000
1000
1000
1000
1000
1000
1000
1000
1000
1000
1000
1000
1000
1000
1000
1000
1000
1000
1000
1000
1000
1000
1000
1000
1000
1000
1000
1000
1000
1000
1000
1000
1000
1000
1000
1000
1000
1000
1000
1000
1000
1000
1000
1000
1000
1000
1000
1000
1000
1000
1000
1000
1000
1000
1000
1000
1000
1000
1000
1000
1000
1000
1000
1000
1000
        </DataArray>
        <DataArray type="Float64" Name="density_prev" format="ascii">
998.0682615110661
1000.273322432864
997.2822112907349
1001.245105021247
1000.507478855073
999.6677036114692
1001.022456690775
1000.986098443991
1000.357980623234
1000.534683355628
1000.534684907975
1000.986097350401
1002.222036222618
997.5170712038714
1001.022456215399
999.7040470265781
1001.269728655115
997.5615427747948
999.1991821835923
1000.666272412865
1000.870486309167
997.0865545052011
1000
996.7203872081775
997.9372737151235
1000.870485204149
1000.666269958434
1000.666270340716
1001.164124061866
1000.666273418868
996.7904038487575
1000.144522691369
1001.833063609507
1000
1000
1000
1000
1000
1000
1001.278243169235
999.7040449695558
1000.857183300153
1000
1000.451436496178
995.2280491483579
999.0348372292975
1000
998.6810149449602
998.6810144564384
1000
1000.543844110367
997.9372727775532
999.5614905393929
1000.317156403111
1000
999.5614897444009
1000
1000
1000
1000
1000
1000
1000
1000
1000
1000
1000
1000
1001.745975669218
1000
1000
1000
1000
1000
1000.194724926198
1000
1000.916952399508
1001.548828259777
1000.424756582502
1000
1000
1000
1000
1000
1000
1000
1000
1000
1000
1000
1000
1000
1000
1000
1000.380004542601
1000
1001.245104990492
1000.292106963992
1001.269729465452
1000.986095583118
999.3582346383847
1000.870485320964
1000
1000
1000
1009.194231707119
1015.604168095482
1000
1000
1000
1000
1000
1000
1000
1000
1000
1000
1000
1000
1000
1000
1000
1000
1000
1000
1000
1000
1000
1000
1000
1000
1000
1000
1000
1000
1000
1000
1000
1000
1000
1000
1000
1000
1000
1000
1000.000687100343
1000
1000
1015.60416900601
997.0865534343216
1000
1000
1000
1000
1000
1000
1000
1000
1000
1000
1000
1000
1000
1000
1000
1000
1000
1000
1000
1000
1000
1000
1000
1000
1000
1000
1000
1000
1000
1000
1000.507094775784
999.8921761619054
999.4892777184488
999.0701641679508
999.0701639746195
1000
999.7040455128634
1000
1000
1000
999.7040467871094
997.4108257686639
1000
1000
1000
999.7027955219335
1000
1002.14025654393
999.8857520988023
999.8857536953059
1004.195569209249
1001.374573236076
998.8354404969776
1000.380004963499
1002.028233472337
1002.028233773374
999.6677035636367
1001.628919681282
996.1983860275398
1000.144525824997
1004.645810895886
1002.45750351957
1002.457504575135
1000
1000.684713627609
1000
1002.111763858879
1000.664875771289
1000
1000.667748550881
996.2088666967622
1000.534685870202
1003.561202851195
1002.54012615873
1002.540127078629
999.7027945237222
1001.164123869004
1000
996.2666156334917
990.804888631105
999.3344296654529
1002.140258169808
998.2941819449875
1000.206199475897
1000.575839925303
1000.534683332468
1000.684712940382
998.6194160284646
998.6118116025256
1000
996.6666809050537
1000
1000.712934412285
1003.430358928611
999.3732493844232
999.3732473526129
999.0348367674233
1000.712934938922
1001.233459206946
1000.712932004088
999.1006551923126
1000.488149815018
1000
1000
1000.83316048134
1001.70594086745
999.1006530337241
1000.833159064063
995.6876722680171
1000
997.438447447721
995.6876711408318
1001.745975375909
1000.488155290113
1005.343960697256
1000.488152075483
992.0308203914869
993.596369694585
1000.667747889259
1000
998.8454913158074
995.6876716350952
997.5170715517295
993.5963717151731
996.6666814631278
995.6876705681594
1000.833160323439
1000
999.0701628145024
998.8454910407125
1000.833158622855
1000
997.4108298894062
1000
1000
998.0682663829481
1000
1000.000586142999
997.2822101965306
999.9413492231186
1001.374573782059
1000
1000
1000
1000
999.1006529232741
998.6118113210305
996.7904041409776
999.1006545407404
998.2941826131071
1000.712931125238
999.0701629271114
996.2088677965336
1002.540124371808
1002.540125539394
1000.575841179651
1002.111761757136
1000
1004.645808440882
998.681013983174
1000.317156084806
1005.343962246168
998.681013388878
1000.664875016065
1001.723947482412
999.0348338592839
1000.488154513188
995.2280564756851
1000.857184058709
1000
1001.705937267491
998.8354397992753
1000
1000.543845327288
1000
1000
1000
1000
1000
1000
1000
1000
1000
1000
1000
1000
1000
1000
1000
1000
1000
1000
1000
1000
1000
1000
1000
1000
1000
1000
1000.194725408437
1000
1000
1000
1000
1000
1000.000586142768
1000.91695253239
1000
1000
1000
1000
1000
1000
1015.60416811599
1000
1000
1000.000687089911
997.4384458891108
1000
1000
1000
1000
1000
1000
1000
1000
1000
1000
1000
1000
1000.846007508563
1000
1000
1000
1000
1000.575841017726
1000
1000
1000
1000
999.3732487202147
1000
1000
1000
1000
999.3732462350285
1001.233460291223
996.7203879872951
1000
1000
1015.604169795151
1009.194232624286
1001.548827151794
1000.424756335228
1000
999.5614882346375
999.5614895490149
1000
1001.83305842622
1000
1000
1000
1000.037356206425
1000
1000
1000
1000
1000
1000
1000
1000
1000
1000
1000
1000
1000
1000
1000.451435652338
1000
1000
1000
1000
1000
1000
1000
1000
1000
1000
1000
1000
1000
1000
1000
1000
1000
1000
1000
1000
1000
1000
1000
1000
1000
1000
1000
1000
1000
1000
1000
997.5615430200615
1001.278242666815
1003.561204594444
1000
1000
997.2822104055144
1003.430358640623
1000
1000
1000
1000
1000
1000
1000
1000
1000
1000.000586145092
1000
1000
1000
1000
1000
1000
1000.38000509254
1000
1000
1000
1000
1000
1000
1000
998.0682659449426
998.6118131012704
998.2941815025703
996.2088674318227
1002.028234831639
1002.028234684539
999.489277298728
999.89217967642
1002.45750275855
1009.194232360877
1000
1000
1000
1001.164123887024
1002.457504294077
990.8048984610772
1004.195570323992
997.4384473783019
1001.705940162747
993.5963695068322
1001.83306341637
1000.42475678672
1001.54882910256
1000.916953382951
1000
1000.194725768761
1000
1000
1000
1000.846010611583
996.1983866275791
998.8454912071708
1001.23345848001
1002.111762935148
997.0865557064848
999.3582387930065
999.1991823757752
1000.543843259607
1000.507095876024
996.6666797482835
992.0308135155922
1005.343961633591
1000.543845426524
999.9413477575964
996.6666816147027
1001.278242762172
1001.269728659273
1000.986094910547
997.0865538652234
996.1983867762233
999.358238551991
1000.870484274711
999.3582369282381
1003.561203775271
1001.269730853219
999.0348351005453
1001.233460817039
1002.222034919625
999.1991823687646
1000
1000
1009.194232118993
1000
999.1991828430217
1000
1000
999.3344300349817
1000
1000
1000
1000.357980822707
997.5615426981692
1001.628919483984
996.208867241026
1000.206198804034
993.5963724599302
992.0308196684571
1000.144523888054
1005.343963387419
998.6194168882508
998.2941823722092
1000.575839391082
1002.111762906949
998.6118101894996
1000.84601044704
1000.292107796422
1000.273321600547
1001.70593824829