<VTKFile type="PolyData" version="1.0" byte_order="LittleEndian" header_type="UInt64">
  <PolyData>
    <Piece NumberOfPoints="2948" NumberOfVerts="2948">
      <Points>
        <DataArray type="Float64" Name="Points" NumberOfComponents="3" format="ascii">
0.06556657427917252 0.09569404019223014 0.1006558336355069
0.02680451693839755 0.107112831126955 0.1323592828416576
0.07430595980659045 0.1044334257206167 0.1006558336418473
0.07360809021954762 0.09639190977952929 0.09966723510266931
0.05169567353026542 0.1114074166376463 0.1031296223711933
0.05859258336152214 0.1183043264707371 0.103129622370229
0.04478893895694475 0.111782824612687 0.1065730900277312
0.02397518662277732 0.09857330507651935 0.1167871519875664
0.03508225875574784 0.08942620641708286 0.1077055772734785
0.03527095211270048 0.09707977293166832 0.1073422194285452
0.02393571242332302 0.08940501146956803 0.1161609501135571
0.04412764293676722 0.1049578134297941 0.1043772827139227
0.04463007881100044 0.1470645187361891 0.1200350062234053
0.02293548126355531 0.1253699211893414 0.1200350062225261
0.0438284629038753 0.09679230319175304 0.1034638066004462
0.02684808386132003 0.1152011960117875 0.1354666519243203
0.02695970765234542 0.09807476589026445 0.1302929683977576
0.03263224333622662 0.1373677566635975 0.1161453701236301
0.04196586825691707 0.1280341317436043 0.1070199347556615
0.05072359540771643 0.1037137760433413 0.09925641588776583
0.05023784012205613 0.09649911825502554 0.09884856473692213
0.0482311023113501 0.1373208773328436 0.1080506081259085
0.03267912266755766 0.1217688976879296 0.1080506081247214
0.04803776587083741 0.1052064118676587 0.09572756582223668
0.06479358813137669 0.1219622341299822 0.09572756582140242
0.04821223201552816 0.09639805923951464 0.09477632306929802
0.05035422724901106 0.1129130911824413 0.09594767686061653
0.05708690881725675 0.1196457727515235 0.09594767685978835
0.008186842105263157 0.08951842105263157 0.1393346153846154
0.03261465648060124 0.1141976298884641 0.1043380388274227
0.01857167873981634 0.1514283212601297 0.1311682690220869
0.04205491051311142 0.120122277631976 0.09847574934024544
0.04987772236867705 0.1279450894875438 0.09847574934095386
0.05800549629371923 0.1119945037055244 0.09395714989176991
0.03292365533676116 0.1058732255718186 0.1024237035327738
0.02241710096084867 0.107785800181046 0.113585022755931
0.03551581559134288 0.1482987107361616 0.1194663499638359
0.02170128926406942 0.1344841844081908 0.1194663499655474
0.03288350689303184 0.09779030499226773 0.1009772523886038
0.03305594075045012 0.08912588640638223 0.1002137432920578
0.06545497872476379 0.1140615699174797 0.09066108788908994
0.07335656953975575 0.1145410879041614 0.08979047260664973
0.05545891209757173 0.09664343045949123 0.08979047260788788
0.05593843008424892 0.1045450212753879 0.09066108788788194
0.02728492479586981 0.1500543756385528 0.1235002452251942
0.01994562436166693 0.1427150752027856 0.1235002452246263
0.03195985488010734 0.1299000202445378 0.1064942706758006
0.04009997975533192 0.1380401451200907 0.1064942706756954
0.02295726996234726 0.09858908586141482 0.1117050409431493
0.02291988898402817 0.08951123515346504 0.1110278626882424
0.04055611675010486 0.1133900102882119 0.09337662415755263
0.04383661845738933 0.0967077896911387 0.1114123351840245
0.06537146584693602 0.104628534151898 0.08517653749861301
0.06599180883100249 0.09630211671409578 0.08365076104721086
0.07369788328720761 0.1040081911667571 0.08365076104662922
0.03168162816975728 0.1383183718306613 0.1094190409129262
0.04937797752121014 0.1206220224781799 0.08988514331385665
0.04793192152976818 0.1383408361405796 0.1011703671828231
0.0316591638587026 0.1220680784713493 0.1011703671828646
0.03937532304684565 0.09728118241209556 0.08981096562502414
0.04009127131251251 0.1048878371679337 0.09068428434658089
0.03947498918696718 0.08889429632281036 0.08967009755304971
0.05618376051515483 0.1138162394848192 0.08583794533776448
0.04477841449799784 0.1488626957685298 0.1142498125739045
0.02113730423131833 0.1252215855015624 0.1142498125746917
0.0553149942928281 0.09683368351469553 0.08340804685891803
0.07316631648511326 0.1146850057070442 0.08340804685939028
0.05316963240123653 0.1510844179402584 0.1053805325384425
0.06437799736411415 0.113999279894176 0.08358951599387097
0.05600072010556467 0.1056220026362163 0.08358951599406347
0.008186842105263157 0.09855526315789473 0.1831423076923077
0.04861500891431129 0.1302290003556285 0.09098780450347763
0.03977099964489958 0.121384991084765 0.09098780450218213
0.008186842105263157 0.1347026315789474 0.1743807692307693
0.008186842105263157 0.1256657894736842 0.1743807692307693
0.03126593036381708 0.1142000090212291 0.09792257069563735
0.0296687225868171 0.09767196290190085 0.1343924391877278
0.0308126686626685 0.09772371432715551 0.09529110898730252
0.03045339124269736 0.1064646903090639 0.09634821581712295
0.02543288229052138 0.09804749134472945 0.1266072185327878
0.05628451747951231 0.1067497932402015 0.1228151582016
0.02027066805702294 0.1168050387466106 0.1112200252002347
0.03051264214452257 0.08932795220536649 0.094304713264361
0.008186842105263157 0.1347026315789474 0.1831423076923077
0.008186842105263157 0.1618131578947369 0.1480961538461539
0.008186842105263157 0.1527763157894737 0.1480961538461539
0.008186842105263157 0.1437394736842105 0.1480961538461539
0.008186842105263157 0.1347026315789474 0.1480961538461539
0.008186842105263157 0.1256657894736842 0.1480961538461539
0.008186842105263157 0.116628947368421 0.1480961538461539
0.008186842105263157 0.1075921052631579 0.1480961538461539
0.008186842105263157 0.1618131578947369 0.1393346153846154
0.008186842105263157 0.1527763157894737 0.1393346153846154
0.008186842105263157 0.1437394736842105 0.1393346153846154
0.008186842105263157 0.1347026315789474 0.1393346153846154
0.008186842105263157 0.1256657894736842 0.1393346153846154
0.008186842105263157 0.116628947368421 0.1393346153846154
0.008186842105263157 0.1075921052631579 0.1393346153846154
0.008186842105263157 0.1618131578947369 0.130573076923077
0.008186842105263157 0.1527763157894737 0.130573076923077
0.008186842105263157 0.1437394736842105 0.130573076923077
0.008186842105263157 0.1347026315789474 0.130573076923077
0.008186842105263157 0.1256657894736842 0.130573076923077
0.008186842105263157 0.116628947368421 0.130573076923077
0.008186842105263157 0.1075921052631579 0.130573076923077
0.008186842105263157 0.1618131578947369 0.1218115384615385
0.008186842105263157 0.1527763157894737 0.1218115384615385
0.008186842105263157 0.1437394736842105 0.1218115384615385
0.008186842105263157 0.1347026315789474 0.1218115384615385
0.008186842105263157 0.1256657894736842 0.1218115384615385
0.008186842105263157 0.116628947368421 0.1218115384615385
0.008186842105263157 0.1075921052631579 0.1218115384615385
0.008186842105263157 0.1618131578947369 0.11305
0.008186842105263157 0.1527763157894737 0.11305
0.008186842105263157 0.1437394736842105 0.11305
0.008186842105263157 0.1347026315789474 0.11305
0.008186842105263157 0.1256657894736842 0.11305
0.008186842105263157 0.116628947368421 0.11305
0.008186842105263157 0.1075921052631579 0.11305
0.01722368421052631 0.1618131578947369 0.1480961538461539
0.02626052631578947 0.1618131578947369 0.1480961538461539
0.03529736842105263 0.1618131578947369 0.1480961538461539
0.01722368421052631 0.1618131578947369 0.11305
0.02626052631578947 0.1618131578947369 0.11305
0.03529736842105263 0.1618131578947369 0.11305
0.04433421052631578 0.1618131578947369 0.11305
0.01722368421052631 0.1618131578947369 0.1218115384615385
0.02626052631578947 0.1618131578947369 0.1218115384615385
0.03529736842105263 0.1618131578947369 0.1218115384615385
0.04433421052631578 0.1618131578947369 0.1218115384615385
0.01722368421052631 0.1618131578947369 0.130573076923077
0.02626052631578947 0.1618131578947369 0.130573076923077
0.03529736842105263 0.1618131578947369 0.130573076923077
0.01722368421052631 0.1618131578947369 0.1393346153846154
0.02626052631578947 0.1618131578947369 0.1393346153846154
0.03529736842105263 0.1618131578947369 0.1393346153846154
0.01877870012610106 0.1428486017367555 0.1026799215796914
0.008186842105263157 0.09855526315789473 0.1743807692307693
0.01894649781625465 0.1253792142991058 0.1019114301929181
0.01948700975720273 0.1347698300748776 0.1067951781325816
0.01901854823681141 0.1428136324049319 0.1098890318369497
0.01831360641716369 0.1516863935826123 0.1089709573527974
0.008186842105263157 0.1075921052631579 0.1743807692307693
0.06034578249979784 0.1096542175009123 0.11348270436902
0.02722415457511564 0.1233029199604967 0.1407115774977392
0.02753772144997644 0.1295610631725592 0.1465546241190303
0.04764695141747565 0.1353350004372904 0.1604355811116611
0.06445887403813323 0.1161920926610602 0.1341787146847308
0.01835757030705365 0.1516424296931861 0.1005894144618947
0.04433421052631578 0.1618131578947369 0.1393346153846154
0.03532764745570069 0.1511969188742686 0.1000360339948133
0.0271863675957368 0.1509814517629089 0.1098890318379097
0.04433421052631578 0.1618131578947369 0.130573076923077
0.01856947825845258 0.1076096216532784 0.09608173570446073
0.01852452870998867 0.1168610620633638 0.09872329456386381
0.01880308112577822 0.1346723525442172 0.100036033994218
0.02561468646809706 0.1336193216143144 0.1540840637035259
0.03523016992449047 0.1505129902425393 0.1067951781342372
0.04433421052631578 0.1618131578947369 0.1480961538461539
0.02224537436563994 0.116664747097247 0.1163890334614938
0.03405992026267048 0.1359400797363932 0.1325026778874082
0.008186842105263157 0.1256657894736842 0.1831423076923077
0.03529736842105263 0.1618131578947369 0.1656192307692308
0.02626052631578947 0.1618131578947369 0.1568576923076923
0.008186842105263157 0.1256657894736842 0.1656192307692308
0.07017289014691669 0.1153975948484171 0.1310147375326795
0.03731124659023993 0.08876721596315981 0.142025005886088
0.03638067838429017 0.144385313533517 0.1540840637065398
[...]
      <PointData>
        <DataArray type="UInt64" Name="type" format="ascii">
1
1
1
1
1
1
1
1
1
1
1
1
1
1
1
1
1
1
1
1
1
1
1
1
1
1
1
1
0
1
1
1
1
1
1
1
1
1
1
1
1
1
1
1
1
1
1
1
1
1
1
1
1
1
1
1
1
1
1
1
1
1
1
1
1
1
1
1
1
1
0
1
1
0
0
1
1
1
1
1
1
1
1
0
0
0
0
0
0
0
0
0
0
0
0
0
0
0
0
0
0
0
0
0
0
0
0
0
0
0
0
0
0
0
0
0
0
0
0
0
0
0
0
0
0
0
0
0
0
0
0
0
0
0
0
0
1
0
1
1
1
1
0
1
1
1
1
1
1
0
1
1
0
1
1
1
1
1
0
1
1
0
0
0
0
1
1
1
1
0
1
0
1
1
1
1
1
1
1
1
1
1
1
1
1
0
1
0
1
1
0
1
1
1
1
1
1
1
1
1
1
1
1
1
1
1
1
1
1
1
1
1
0
1
1
1
1
1
1
1
1
1
1
1
1
1
1
1
1
1
1
1
0
0
1
1
0
1
1
1
1
0
0
1
1
0
1
1
1
1
0
0
0
0
0
1
1
0
1
0
1
1
1
0
1
1
1
1
1
1
1
1
1
1
1
1
0
1
1
1
1
1
1
1
0
1
1
1
1
1
1
1
1
1
1
1
1
1
0
0
1
1
1
1
0
1
1
1
1
1
1
1
1
1
1
1
1
1
1
1
1
1
1
1
1
1
1
1
1
1
1
0
1
0
1
1
1
0
1
1
1
1
1
1
1
1
1
1
1
1
1
1
0
1
1
1
1
1
1
1
1
1
1
1
1
1
1
1
0
1
1
1
1
1
1
1
1
1
1
1
1
1
1
1
1
1
1
0
0
0
0
1
0
0
0
1
0
1
1
1
1
1
1
1
1
1
1
1
1
1
1
1
1
1
1
1
1
0
1
0
1
1
1
0
1
1
1
1
0
0
0
0
0
0
1
0
0
1
1
0
0
1
0
1
1
0
0
1
0
1
1
1
1
1
1
0
0
0
0
1
1
1
1
1
1
1
1
1
0
1
1
1
1
1
1
0
1
0
1
0
1
1
1
1
1
1
1
1
1
1
1
1
1
1
1
1
1
1
1
1
1
1
1
1
1
0
0
0
0
0
0
0
0
0
1
1
1
1
1
1
0
0
0
0
1
1
1
1
1
0
1
0
1
1
0
1
1
1
1
1
1
1
1
1
1
1
1
0
0
1
1
1
1
1
1
1
1
1
1
1
0
0
1
1
0
1
1
0
1
1
0
0
1
0
0
0
0
0
0
1
0
0
0
0
0
1
1
1
0
0
0
0
0
0
0
0
0
0
0
0
0
0
0
0
0
0
0
0
0
0
0
0
0
0
0
0
0
0
0
0
0
0
0
0
0
0
0
0
1
1
0
1
1
1
1
1
1
1
1
1
1
1
0
1
1
1
1
1
1
1
1
1
1
1
0
1
1
0
1
1
1
1
1
1
1
1
1
1
1
1
1
1
1
1
1
1
1
1
1
1
1
1
1
1
1
1
1
1
1
1
1
0
0
0
1
1
1
1
1
0
1
1
1
0
1
1
1
1
1
1
1
1
1
0
1
0
0
0
1
0
0
1
0
1
1
1
1
1
0
1
1
1
0
1
1
1
1
1
1
1
1
0
1
1
1
1
1
1
1
1
1
1
1
1
1
1
1
1
1
1
1
1
1
1
1
1
1
1
1
1
1
1
1
1
1
1
1
1
1
1
1
1
1
1
1
1
1
0
1
1
1
1
1
1
1
1
1
1
1
1
0
1
1
1
1
1
1
1
1
1
1
1
1
1
1
1
1
1
1
1
1
1
1
1
1
1
0
1
1
1
1
1
1
1
1
1
1
1
1
1
1
0
1
1
1
1
1
1
1
1
1
1
1
1
1
1
0
1
1
1
1
1
1
1
0
1
1
1
1
0
0
0
1
1
0
0
0
0
0
0
1
1
0
0
0
0
0
0
1
1
1
1
1
0
0
0
0
1
1
1
1
1
1
1
1
1
1
1
1
0
1
1
1
1
0
1
1
0
1
0
0
0
0
1
0
0
0
0
0
0
0
0
0
0
0
0
0
0
0
0
0
0
0
1
0
0
0
0
0
0
0
0
0
0
0
0
0
0
0
0
0
1
0
0
0
0
0
0
0
0
1
1
0
1
1
1
1
1
1
0
1
0
0
0
0
0
0
1
0
1
0
0
0
0
0
0
1
1
1
1
1
1
1
0
1
1
0
0
0
1
1
1
0
0
0
0
1
1
0
0
1
1
1
1
1
1
1
1
1
1
1
1
0
1
1
1
1
0
1
0
1
1
1
1
0
0
0
1
1
0
0
1
0
1
1
1
1
1
1
1
1
1
0
1
1
1
0
1
1
1
1
1
1
1
1
1
1
0
1
1
1
1
1
1
1
1
1
0
1
1
1
1
1
0
0
1
1
1
1
0
1
1
1
1
1
1
1
1
1
1
1
1
1
1
1
1
1
1
1
1
1
1
1
1
1
1
1
1
1
1
1
1
1
1
1
1
1
1
1
1
1
1
1
1
1
1
1
1
1
1
1
1
1
1
1
1
1
1
1
1
1
1
1
1
1
1
1
1
1
1
1
1
1
1
1
0
1
1
0
1
1
1
1
1
1
1
1
1
0
1
1
0
0
0
1
1
1
1
1
1
1
1
1
0
0
0
1
1
1
0
1
1
0
1
0
0
1
0
1
1
1
1
0
0
1
1
1
1
1
1
1
0
1
1
1
1
1
1
1
0
1
1
1
1
1
1
1
1
0
1
0
1
0
1
1
0
0
1
0
0
0
1
0
1
1
1
1
1
0
1
1
1
1
1
1
1
1
1
1
0
1
1
1
1
1
1
1
1
0
1
1
0
1
1
1
1
0
1
1
1
1
1
1
1
1
1
1
1
1
1
1
1
1
0
1
0
1
1
1
1
1
1
1
1
0
1
1
1
1
1
1
1
1
1
1
1
1
1
1
0
1
1
1
1
1
1
1
1
0
1
1
1
1
1
1
1
0
1
1
0
0
1
1
1
0
1
0
1
1
0
0
1
0
1
1
1
1
0
0
1
1
1
1
0
1
1
0
0
0
1
1
1
1
1
0
1
1
1
0
1
1
1
1
1
1
1
1
1
1
1
1
1
1
1
0
0
1
1
1
1
1
1
1
1
1
1
1
1
0
1
1
1
1
1
1
1
1
1
1
1
1
1
1
1
1
1
1
1
1
1
1
1
1
1
1
0
0
1
1
1
1
1
1
1
1
1
0
0
0
0
0
0
0
0
0
0
0
0
0
1
1
1
1
1
1
1
1
1
1
0
0
0
0
1
1
0
0
1
1
1
1
1
1
1
1
1
1
1
1
1
1
1
1
1
1
1
1
1
1
1
1
1
1
1
1
1
1
1
1
1
1
1
1
1
1
1
1
1
1
1
1
1
1
1
1
1
1
1
1
1
1
1
1
1
1
1
1
1
1
1
1
1
1
1
1
1
1
1
1
1
1
1
1
1
1
1
1
1
1
1
1
1
1
1
1
1
1
1
1
1
1
1
1
1
1
1
1
1
1
1
1
1
0
0
0
0
1
1
1
1
1
1
1
1
1
1
0
0
0
0
1
1
1
1
1
1
1
1
1
1
1
1
1
1
1
1
1
1
1
1
1
1
1
1
1
1
1
1
1
1
1
1
1
1
1
1
1
1
1
1
1
1
0
0
0
0
0
0
0
0
0
0
0
0
0
0
0
0
0
0
1
1
1
1
1
0
0
0
0
0
0
0
0
0
0
0
0
0
0
0
0
0
0
1
0
0
0
0
0
0
0
1
0
0
0
0
0
0
0
0
1
1
1
1
1
1
1
1
1
1
1
1
1
1
1
1
1
1
1
1
1
1
1
1
1
1
1
1
1
1
1
1
1
1
1
1
1
1
1
1
1
1
1
1
1
1
1
1
1
1
1
1
1
1
1
1
1
1
1
1
1
1
1
1
1
1
1
1
1
1
1
1
1
1
1
1
1
1
1
1
1
1
0
0
0
1
1
1
1
1
1
1
1
1
1
1
1
1
1
1
1
1
0
0
0
0
1
1
1
1
1
1
1
1
1
1
1
1
1
1
1
1
1
1
1
1
1
1
1
1
1
1
1
1
1
1
1
1
1
1
1
1
1
1
1
1
1
1
1
1
1
1
1
1
1
1
1
1
1
1
1
1
1
1
1
1
1
1
1
1
1
1
1
1
1
1
1
1
1
1
1
1
1
1
1
1
1
1
1
1
1
1
1
1
1
1
1
1
1
1
1
1
1
1
1
1
1
1
1
1
1
1
1
1
1
1
1
1
1
1
1
1
1
1
1
1
1
1
1
1
1
1
1
1
1
1
1
1
1
1
1
1
1
1
1
1
1
1
1
1
1
1
1
1
1
1
1
1
1
1
1
1
1
1
1
1
1
1
1
1
1
1
1
1
1
1
1
1
1
1
1
1
1
1
1
1
1
1
1
1
1
1
1
1
1
1
1
1
1
1
1
1
1
1
1
1
1
1
1
1
1
1
1
1
1
1
1
1
1
1
1
1
1
1
1
1
1
1
1
1
1
1
1
1
1
1
1
1
1
1
1
1
1
1
1
1
1
1
1
1
1
1
1
1
1
1
1
1
1
1
1
1
1
1
1
1
1
1
1
1
1
1
1
1
1
1
1
1
1
1
1
1
1
1
1
1
1
1
1
1
1
1
1
1
1
1
1
1
1
1
1
1
1
1
1
1
1
1
1
1
1
1
1
1
1
1
1
1
1
1
1
1
1
1
1
1
1
1
1
1
1
1
1
1
1
1
1
1
1
1
1
1
1
1
1
0
1
1
1
1
1
1
1
1
1
1
1
0
1
1
1
1
1
1
1
1
1
1
1
1
1
1
1
1
1
1
1
1
1
1
0
0
1
1
0
0
1
1
1
1
1
1
0
0
0
0
0
0
0
0
0
0
1
1
1
0
0
0
0
0
0
1
0
0
0
0
0
0
1
1
1
0
0
0
0
0
0
1
1
1
1
0
0
1
1
0
0
0
0
1
1
1
1
1
1
1
1
1
1
1
1
1
1
1
1
1
1
1
1
1
1
1
1
1
0
1
0
0
1
1
1
1
1
1
1
1
1
1
1
1
1
1
1
1
1
1
1
1
1
1
1
1
1
1
1
1
1
1
1
1
1
1
1
1
1
1
1
1
1
1
1
0
0
0
0
0
0
0
0
0
0
0
0
0
0
0
0
1
0
0
1
0
0
0
0
0
0
0
0
0
0
0
0
0
0
1
1
1
1
0
0
0
1
0
0
0
0
0
1
1
1
1
1
1
1
1
1
1
1
1
1
1
1
1
1
1
1
1
1
1
1
1
1
1
1
1
1
1
1
1
1
1
1
1
1
1
1
1
1
1
1
1
1
1
1
1
1
1
1
1
1
1
1
1
1
1
1
1
1
1
1
1
1
1
1
1
1
1
1
0
0
1
1
1
1
1
0
0
0
0
1
1
1
1
1
1
1
1
1
1
1
1
1
1
1
1
1
1
1
1
1
1
1
1
1
1
1
1
1
1
1
1
1
1
1
1
1
1
1
1
1
1
1
1
1
1
1
1
1
1
1
1
1
1
1
1
1
1
1
1
1
1
1
1
1
1
1
1
1
1
1
1
1
1
1
1
1
1
1
1
1
1
1
1
1
1
1
1
1
1
1
1
1
1
1
1
1
1
1
1
1
1
1
1
1
1
1
1
1
1
1
1
1
1
1
1
1
1
1
1
1
1
1
1
1
1
1
1
1
1
0
0
0
0
0
0
0
0
0
0
0
1
0
1
0
0
0
0
0
0
0
0
0
0
0
0
0
0
0
0
0
0
0
0
0
0
0
0
0
0
0
0
0
0
0
0
0
0
0
0
0
0
0
0
0
0
0
0
0
0
0
0
0
0
0
0
0
0
0
0
0
0
0
0
0
1
0
0
0
1
0
1
1
0
1
0
1
0
0
0
0
0
0
0
1
0
0
0
0
0
0
1
0
1
1
1
1
0
1
0
0
0
1
0
1
1
1
1
1
1
0
0
0
1
1
1
1
1
1
0
0
0
0
1
1
1
1
0
1
0
1
1
0
0
0
1
1
1
1
1
0
0
0
0
0
1
0
0
1
1
1
1
1
1
0
1
1
1
1
0
0
0
0
0
1
1
1
0
1
1
1
0
0
1
0
0
0
0
0
0
0
0
0
0
0
0
0
0
1
0
0
0
1
1
1
1
1
0
1
1
0
0
1
1
1
0
0
0
0
0
0
0
1
1
0
0
1
0
0
1
1
1
0
1
0
1
0
1
0
0
1
1
0
0
1
1
1
0
1
1
1
1
0
0
0
0
0
0
0
0
0
1
1
1
0
1
1
0
0
1
0
0
1
0
0
0
0
0
0
0
0
0
0
1
0
0
1
1
1
1
1
1
1
1
1
1
1
1
1
0
0
0
0
0
0
0
1
0
1
0
1
1
1
1
1
1
1
1
1
1
1
1
1
1
1
1
1
1
1
1
1
1
1
1
1
1
1
1
1
1
1
1
0
0
0
0
1
0
0
0
0
1
0
0
0
0
0
0
        </DataArray>
        <DataArray type="Float64" Name="density" format="ascii">
1001.372160376447
998.435669984469
1001.372160307216
1000.32734707477
998.7471483159485
998.7471483483682
999.8803896893272
1000.572061856639
999.9275823060533
1000.408598022565
999.6386732448648
1000.280901120636
1001.439367720804
1001.439367718868
999.9716213528557
1000.770670313394
999.4234339244316
1000.172608856435
1003.735201031105
1000.072420887788
999.7859382146714
999.7290168379228
999.7290168162325
1000.84888664707
1000.848886650518
1000.274121199381
1001.63649910914
1001.636499119118
1000
999.8042781659099
999.9976477228563
1000.45116568661
1000.451165716191
1000.563602064579
999.702445709632
1000.40488962302
1000.154716951532
1000.154716948601
1000.58927513603
1002.182034826101
1000.107812400293
999.2941959415593
999.2941959320176
1000.1078124091
999.7526172195762
999.752617222746
1002.479844077652
1002.479844092525
1001.318837598237
1001.47933416044
1003.243709046353
1000.587187476437
998.2444425080039
999.0882657600939
999.0882657458851
999.2344237884653
1002.84111685999
998.6684068051121
998.6684067700191
1002.616161158479
1001.953852933274
1002.608201536257
1002.116374623221
999.5869244149587
999.5869244013462
999.7966908877484
999.7966909029927
999.8706437286885
1000.077397374862
1000.077397374792
1000
998.031516326546
998.0315163475673
1000
1000
998.1066446678466
1000.690688718774
997.5349420256537
996.5585025564352
1000.713251427419
999.2355339496933
999.0196875805397
997.4952329247618
1000
1000
1000
1000
1000
1000
1000
1000
1001.209070436033
1000
1000
1000
1000
1000
1000
1000.773772639542
1000
1000
1000
1000
1000
1000
1000.860191858977
1000
1000
1000
1000
1000
1000
1000.649218239324
1000
1000
1000
1000
1000
1000
1000
1000
1000
1000
1000
1000
1000
1000
1000
1000
1000
1000
1000
1000
1000
1000
1000
1001.371293182577
1000
1000.318400728917
999.3360774180184
998.9575884696321
999.6364968945211
1000
999.7970332978716
1000.682975888879
999.3677674574259
999.9210551885875
1001.102761407067
1001.655631397623
1000
1000.786470233973
998.9575884842372
1000
1000.720927255139
1000.926912406981
1000.78647025094
1000.706098779206
999.3360774336037
1000
1000.438491826616
1002.138138797619
1000
1000
1000
1000
1000.951729164106
1000.360822795599
1000.706098775277
999.3677674376062
1000
1002.096686206565
1000
1000.341149982486
1000.321105406051
1001.091908492838
1000.682975871569
1000.363917059426
998.2632598527987
1001.104316440132
998.8595031388193
997.2678238466274
999.0378257221334
1000.199819052881
999.1851512905686
999.3170105463671
1000
1000.984162286604
1000
999.4425562100138
1000.628206888513
1000
1000.851280237276
999.5183871608609
1000.912882048071
1000.19981917303
1000.912882048354
999.5183871910389
999.814889816124
1000.628206837559
1003.35535804449
1001.423459444698
1001.423459469167
1001.97484413194
1000.802851113714
1000.103868946387
999.1264132032583
1000.195724822605
996.9813733611051
999.1343009284661
1000.106027090654
998.765322393282
1001.102761401764
1000
999.7221824265715
997.5147107250247
1000.204856797165
998.9124049946159
998.667643504217
998.6676434850768
998.9124049846939
999.4280581920654
999.8706437158975
1001.107615358965
1000.926912406909
1000.318400714338
1001.371293186784
998.6493106142289
1000.087678290262
998.7758710596977
1000.994143002866
998.7758710685506
1000.103868945154
1000
1000
1001.36816836943
998.746076494226
1000
997.5147107197839
998.7653223813904
1000.106027078274
1001.316212555377
1000
1000
1000.195724812608
1000.321105409639
1000
1000.851280218433
1000.244836303685
1000.355653792631
1000.205781813526
1000
1000
1000
1000
1000
999.8752380831822
1001.740267874848
1000
999.6774142885497
1000
1000.019667443577
1001.535374992966
1000.524666989755
1000
1000.106591567652
1001.710533255431
1000.461415117595
1001.195633422545
999.6386732267586
1003.355358064893
1002.226935347368
998.746076533822
1000.161888944296
1001.740267934847
1000.220317067908
1000.196691876234
1000
1000.220317073449
1000.400821651509
1002.226935327842
999.0741575863851
999.695498629358
1000.461415104536
999.6774143031697
1000
1000.072420864476
1002.096686201221
998.2828079033284
1001.273358842003
1000.825409493699
999.7859381403179
999.5245645039786
999.8312840378622
1000.480705790562
999.7901087557722
1000.633408026257
999.9275822765811
999.784843949406
1000
1000
999.6650995863441
998.7260891560787
1000.353554835815
1000.274121198845
1000
1000.012909800454
999.9206931311337
1001.371088572116
999.6975202714136
1000.317377060704
1000.287850294688
998.7513908605945
999.86602894867
998.8896448314184
1001.127807006275
1000.242645426522
999.8051952868616
1004.577278321086
999.8660289437632
1000.616330342498
1000.398333961349
1001.593149777198
1003.24370906718
999.7024457395538
999.805195297702
998.7513908571564
1000.589667934015
1001.050152673906
1000.242645432647
1000.287850285858
999.6650995878954
1000
999.1343009189627
1000
999.9902118297127
1000.400821656514
999.6632639044819
1000
999.4425561938688
1000.589275136965
999.9640176581082
1002.843185206243
999.5501080058233
1000.012909783164
999.9220104260849
999.2756787955899
999.3170105447596
1002.616161250913
1000.147109723803
999.1569677923045
999.5968211615763
999.6028954995335
1000
1000.480705789749
999.2756787902862
999.9210551850211
1001.010645784125
997.9424966699579
1000.951729199216
999.9632001452628
999.1569677592664
999.7962496291771
999.2381855028557
1001.010645796592
1000.147109734026
999.9640176538442
999.8305600578811
999.796249635545
1000
998.7260891445261
1000.770670308789
1000.616330355567
998.4356699887427
999.9220104165651
1000.392030108392
1001.189143753527
999.9902118580031
1000.019667417154
999.6954986470589
997.2678238684013
1002.608201581842
999.8752380862429
1001.953852987027
999.7901087665527
999.1851513183697
1000.363917062685
999.2462283851897
1000
1000
1000
1000
999.5501079790153
1000
1000
1000
999.5114181906425
1000
999.1254005357199
1002.463970116639
1001.091908493926
1000.355653809642
999.0015964398559
999.074157578867
1000.587187447641
999.6632638769927
999.9333365378958
999.7848439741507
1000.175907343496
999.697520312303
1000.690688653968
999.4234339276361
1001.371088560315
1000.713251447936
1000.825409483224
1000.244836333034
999.4546668113674
1001.12780700446
1000
1001.755287469889
1000
1001.720773068718
1000.572061798901
999.5628864097631
1000
999.8196177662758
999.8178359819117
1000.652247250467
1000.248251642341
1000
1000
1000
1000
1000
1000
998.3712645102655
1000
1000
1000.720927288691
1000.205781875426
1000
1000
999.5494810146317
1000
1001.10761539023
1001.316212586905
1000
1000
1000.835269733588
1000
1000.408597973436
1001.356038804627
999.019687587329
1000.204856787854
1001.720773053072
1001.368168340846
1000
1000
1000
1000
1000.438491820323
1000.565241182815
999.0015964520744
1000.908489003656
999.4543259843279
1000.404889581512
1001.318837532327
999.8148897765592
1001.153589113782
1000
1001.252443587024
998.106644718843
996.5585026277303
997.5349421080114
1002.182034800372
998.2632598580778
1000
999.9716212968232
1000
999.4546668141843
1000
999.5486391469423
999.5486391423069
999.8803897049883
1000.524667017754
1001.53537501466
1001.710533250172
1000.311833261112
1001.153589124016
1001.479334140206
1001.252443541042
999.8042782134265
1000.984162295579
997.4952329462872
1000.280901118771
1000.311833265562
999.8196177728779
999.8312840364475
999.5494810192947
1000.106591573225
999.562886408155
1000.17590730284
1000.565241176737
999.2355339302302
1001.974844109259
999.9333364670509
1000
1000
1000
1000
1000
1000
1000
1000
1000
1000.802851127552
1002.182034823363
999.7966909173101
999.4776146633816
1000.07242084054
997.3570170442473
1000
1000
1000
1000
998.747148304104
1000.228603491862
999.0196875633044
999.0249607524028
1000.802851139298
1000
1000.17260884691
1000
999.5500934583869
1000.021087880958
1000
1001.521885073397
999.8706437420594
999.7859380975839
1000.633408006678
1000.353554830748
999.8706437116543
999.5500934813496
1001.636499115529
1000.633408045225
999.5114181693738
1001.521885129167
1000.077397383963
1000
1000
998.2444424843482
1000.353554841719
999.0086974086269
999.7538134960379
998.6676434993309
1000.261438919546
1000.572019074841
1001.710533205859
1000.274121167905
1000.107812400794
1001.95385298795
1000
1000
1000.24825166122
1000.204856751738
1000
999.602895488666
999.0944302661512
1000
999.4543260301132
999.8042781725488
1000
1000
999.2079392020153
1000
1000.941510601938
1000.3825938073
1000
1000
1000
1000.161888936126
1000
1000
1000
1000.041978037317
1000.795831006295
1000.451165699322
1000.786470234616
1000.848886637216
1000
1000
1000.829888622216
1000.879946050814
1000.400310681124
1000.505442527051
1000.779288734713
1000.448796291844
1000
1000
1000
1000.60428148773
1000
1000.545825385115
1000.006039566815
1000
1000.982320030079
1000.629387249347
1000.290013129234
1000
1000
1000.400310704519
1000.505442529747
1000.779288728435
1000.448796289128
1000.027127268072
1000
1000
1000
1000
1000.829888618002
1000.879946047739
1000.063978133649
1000
1000
1000
1000
1000
1000.604281483527
1000.315503811887
1001.384056441485
999.3360774330074
1000
1001.166462406192
999.8007345683548
999.7916617542356
998.1066446757567
1000.438491798343
1001.479334094633
1001.107615392713
1000.720927286514
999.4776146665646
1000.087678276333
999.9143746331658
1000
999.9275822800222
1002.156914592086
1001.356038794598
1000.40859797664
1000.317377028014
1000.318400721965
1001.37216029574
1001.356038830677
1001.535374991726
999.5114182394547
1000.327347086199
1000
1000.300874132968
1000.524667023354
1000
997.4952329792643
998.2828078934692
999.7526172040164
1000.204856771927
999.2941959434319
1002.608201579823
1000.809527021086
997.534942120321
998.5945748608128
999.203789486926
1001.050152634911
998.0315163638786
999.7238280757717
999.9716212986094
999.4095237663566
999.1938889536503
999.454325998423
999.880389684865
997.8457006503013
998.1066447042524
1000.733934610989
1000.196691886703
1002.479844086922
1001.195633422334
1003.128421813142
1000.809527025251
1001.318837487529
1002.373794643486
1000.096470148954
1001.916633434688
1001.916633437559
1000.017076719281
1001.243076069862
1000
1000
1000
1002.353960069447
999.8042781979764
1000.360822794775
1002.318706583001
998.6493106042147
1000
998.6684067921125
1002.616161245498
999.1421855035915
1000
1000.385931426565
999.1421854813715
997.9395604540019
1000.416421465605
1001.270636720341
1000.908489011894
1000.287850276627
1000.22031707682
998.9604262421775
1000
1000.398333969068
1000
1000
1000
999.5183871533952
1000
1000
998.8595031669903
1001.209070435494
999.1985911642902
999.6386732018517
1001.408568002862
1000.400821642534
1000.0210879482
1000
1000.657106998872
1000.657106971007
998.982017829918
1000
999.797405355638
998.9896542472583
1003.243709076887
998.4424436610384
1000.483791542117
1000.504482013596
1000.504482009436
1000.504482025248
1000
998.1509498582518
998.1509498439116
998.9967476719888
1001.018458394132
1001.018458363668
1001.018458382988
997.8880158260579
997.8880158189579
1002.403566113655
999.7578769139667
1002.403566067315
1001.970438634673
1001.97043861897
1001.58402332692
1001.584023286522
1005.083739408995
1001.93170146482
1001.931701487777
1001.931701474942
1001.201197285778
999.0882657235321
1003.549729968543
1000.261438952092
1003.549729928308
1000.357559246297
1000.835269762901
1001.014473648793
1001.014473616055
998.5084696027346
998.4895453613642
998.5084695678565
998.4895453256528
998.4895453512034
997.9444279432595
997.9444279570956
1003.564546682836
999.9902118188681
999.5460401330193
999.5460401057585
1001.777712209652
1001.77771220637
1002.976310723828
1000.385931439849
1001.003255275557
999.5936924344895
1000
1001.678998632596
1001.678998632209
1001.661985645346
1001.661985686859
997.560836710795
1002.234459149507
1000.43849180707
999.9222061605102
999.9222061160912
1003.186080211742
1003.186080223827
999.9187925034322
1000
999.8640564910153
1001.697092414862
1001.697092403611
1001.697092421662
1000.808303267028
1000.808303280544
1000.808303282807
1000.676267591831
1000.676267646918
1000.39203013235
999.5751135601912
999.5751135456391
1001.69702827766
1000.75158157873
1000.751581607659
1001.320422733784
999.3393736922446
999.339373725354
999.3393737388841
999.2199592525865
1000.88111164601
999.2199593175289
1000.881111679513
1000.881111669317
996.9364871186099
1000
1000.996485037947
1000.99648504461
996.6012139184979
1000.926912419113
996.6012139514492
999.4493301684048
999.4493301571659
1000.793968061253
1000.793968029522
1001.26821254367
1001.268212496253
1001.088860796979
999.4398407693847
999.4398407091277
1000
1002.841116901329
1000.280901102894
998.0315163568154
999.5183871848169
1000.676267640043
996.5585025706973
1000.404889566581
998.5945748152412
999.7238280640421
997.845700622976
999.1938889328433
996.5585026220692
1003.128421835907
999.8148897728892
1000
1001.384056419518
1000.657106997151
999.4095237539691
999.2037894947078
999.8803896771561
1000.404889555157
999.9222061807504
1000
1001.166462405961
999.7916617503633
999.9976477098986
1001.418306001483
1000
1000
1000.400310710468
1001.316212563512
999.8007345923676
1000.982320035125
1000.629387236828
1000.290013126339
1000.545825373002
1000.006039565534
1000
999.9206931060656
1001.439367704887
1000
1000
1000
1000
1000
1000
1000.318400727395
1002.156914586816
999.7974053378181
1000.017076695092
1001.268212540269
1000
1000
1000
1000
1000.034513989501
1000.034514019415
1000.096470144733
999.2037894397274
1000.572061770834
1003.128421797476
999.8007344928207
999.7538134047537
999.7219873246858
999.7219873556314
1001.678998636755
1000.835269736657
1000
998.9124049935137
1001.636499129067
999.7526172023231
1002.116374648538
1000
1002.854498218025
1000.248251657572
1000
1001.368168295048
1000
1000
1000
1000.860191857524
999.0882657248105
1000
1000
1000.649218237743
1000
1000
1000
1000
1000
1000
1000.604281489469
1000.315503816305
1000
1000
1000
1000
1000
1000.829888629028
1000.879946058384
1000.063978138627
1000.210975282468
1000
1000