<VTKFile type="PolyData" version="1.0" byte_order="LittleEndian" header_type="UInt64">
  <PolyData>
    <Piece NumberOfPoints="1280" NumberOfVerts="1280">
      <Points>
        <DataArray type="Float64" Name="Points" NumberOfComponents="3" format="ascii">
0.138624932280268 0.06305405275299354 0.002921348509163099
0.1229016962054627 0.03697207726751863 0.03305155979076486
0.1618131578947369 0.08951842105263157 0.08676538461538462
0.1292832561773294 0.04796090572132566 0.002975875415910597
0.1430112903622389 0.02698870976777978 0.02535669148751726
0.1526731605098769 0.02808530685643418 0.03066109656602287
0.1618131578947369 0.08048157894736842 0.1042884615384616
0.1419146930440715 0.0173268394346162 0.03066109659469558
0.122039094423099 0.04071674371243655 0.002975875082605792
0.1318732764486619 0.03812672487473002 0.006778369000368155
0.1286354835006301 0.02194212038239404 0.01809007031446696
0.1480578795825732 0.04136451651413819 0.01809007032343758
0.1509651447458285 0.01903485524215616 0.04417676859237771
0.1274734762077397 0.0209740203349273 0.02120539321792479
0.1618131578947369 0.08048157894736842 0.09552692307692309
0.1618131578947369 0.08048157894736842 0.08676538461538462
0.1427004798286284 0.02179415083548815 0.01676611518983275
0.1482058491251748 0.02729952023743288 0.01676611524442408
0.1515859206184069 0.0264984679599377 0.0238547918955449
0.1618131578947369 0.07144473684210526 0.1042884615384616
0.1435015320428142 0.018414079328807 0.02385479194153928
0.139746159857822 0.03025384007230987 0.004787659943784188
0.1175407338316958 0.02689009064958139 0.01571060720413604
0.1365288503560963 0.03347114958461275 0.06035088684183332
0.1347040111468741 0.0352959888176587 0.05788766951069054
0.1187727174461802 0.06986793063899821 0.02355742039905036
0.1618131578947369 0.03529736842105263 0.1042884615384616
0.1407887993224914 0.02757817196595953 0.009106010954701059
0.1038715098653392 0.06612849006196954 0.03020642183620275
0.1424218280259274 0.02921120062859399 0.009106010979654286
0.1618131578947369 0.02626052631578947 0.04295769230769231
0.1618131578947369 0.01722368421052631 0.04295769230769231
0.1618131578947369 0.008186842105263157 0.04295769230769231
0.1193461125225624 0.05065388750925442 0.03640065514565402
0.1618131578947369 0.03529736842105263 0.03419615384615385
0.09699178833188127 0.05070089764352678 0.03350095967765132
0.1180277984149506 0.04524795229159637 0.03437465518119932
0.1386811559787873 0.03131884405717916 0.06196556159719968
0.1618131578947369 0.02626052631578947 0.03419615384615385
0.1273298636096901 0.04267014073930633 0.04204637274803429
0.1618131578947369 0.07144473684210526 0.09552692307692309
0.14670954413917 0.02329045584802236 0.05977899425646026
0.1333725778103073 0.03662742214650732 0.05527119551512134
0.1618131578947369 0.01722368421052631 0.03419615384615385
0.1618131578947369 0.008186842105263157 0.03419615384615385
0.1618131578947369 0.03529736842105263 0.02543461538461539
0.1417376184795441 0.03603344245256538 0.05744178052075483
0.1618131578947369 0.02626052631578947 0.02543461538461539
0.1618131578947369 0.01722368421052631 0.02543461538461539
0.1437394736842105 0.008186842105263157 0.08676538461538462
0.1255047679077602 0.03596156114767975 0.03974346678971482
0.1363695054379983 0.02450857526757831 0.05808696054637289
0.1618131578947369 0.008186842105263157 0.02543461538461539
0.1449428349770243 0.02505716501361379 0.06133585205226594
0.1437394736842105 0.008186842105263157 0.09552692307692309
0.1347026315789474 0.008186842105263157 0.09552692307692309
0.1527763157894737 0.008186842105263157 0.08676538461538462
0.1527763157894737 0.008186842105263157 0.09552692307692309
0.1454914247339818 0.03363049453936564 0.05808696059152998
0.1618131578947369 0.03529736842105263 0.01667307692307693
0.1618131578947369 0.02626052631578947 0.01667307692307693
0.1618131578947369 0.01722368421052631 0.01667307692307693
0.1133213960184058 0.04940469961047846 0.03108451986581664
0.1302458549231892 0.0272651218661673 0.03279301701128392
0.1618131578947369 0.008186842105263157 0.01667307692307693
0.1618131578947369 0.03529736842105263 0.007911538461538463
0.1311305167800105 0.02895395087250518 0.04561594602712135
0.1618131578947369 0.02626052631578947 0.007911538461538463
0.1410460491886761 0.03886948317912618 0.04561594609201798
0.1618131578947369 0.01722368421052631 0.007911538461538463
0.1618131578947369 0.008186842105263157 0.007911538461538463
0.1527763157894737 0.008186842105263157 0.01667307692307693
0.09333275761592566 0.04063942603772335 0.0230435516476282
0.1220112119064378 0.04798878845448085 0.03878155724861136
0.1527763157894737 0.008186842105263157 0.02543461538461539
0.1527763157894737 0.008186842105263157 0.03419615384615385
0.1347026315789474 0.008186842105263157 0.08676538461538462
0.1164182319576835 0.06517543688721791 0.02784991276498723
0.08800655557513645 0.04487737890556063 0.01290536054554765
0.1527763157894737 0.008186842105263157 0.04295769230769231
0.1116068430403121 0.02961010996312751 0.007933377824058981
0.1048245631904047 0.05358176803486944 0.02784991274192082
0.1618131578947369 0.07144473684210526 0.08676538461538462
0.1618131578947369 0.02626052631578947 0.08676538461538462
0.1527763157894737 0.008186842105263157 0.05171923076923078
0.08709780141091397 0.03135649791003331 0.01883689728029472
0.09143447853550841 0.03108362440730185 0.01798305770997661
0.1527763157894737 0.008186842105263157 0.06048076923076924
0.1289711063228764 0.048894613793354 0.03601882204675768
0.1132045938388535 0.06598569758687932 0.01796467905635317
0.1527763157894737 0.008186842105263157 0.0692423076923077
0.1527763157894737 0.008186842105263157 0.07800384615384616
0.1347026315789474 0.008186842105263157 0.03419615384615385
0.1437394736842105 0.008186842105263157 0.03419615384615385
0.1618131578947369 0.008186842105263157 0.09552692307692309
0.1357764855257914 0.04089538135962288 0.04683150081875907
0.1503221991810392 0.01967780086704722 0.02299515432136192
0.09178317972089847 0.02754574710520509 0.01373694617627921
0.1471612557529352 0.02283874429591731 0.01538683044644545
0.1282928521908277 0.03126866987307209 0.03726748696136553
0.1006747602068797 0.09470489893682547 0.01608663874103323
0.1439910618929543 0.02600893812545392 0.01059994264087598
0.08734827435007508 0.02597997872486449 0.0101971423447413
0.1458051835294434 0.03513929379324437 0.05463480901470258
0.1347026315789474 0.008186842105263157 0.04295769230769231
0.1437394736842105 0.008186842105263157 0.04295769230769231
0.1432325180362396 0.02676748195190195 0.06221194550520313
0.1013289494407794 0.07373884719139417 0.02182076748519602
0.1347026315789474 0.008186842105263157 0.05171923076923078
0.1437394736842105 0.008186842105263157 0.05171923076923078
0.1347026315789474 0.008186842105263157 0.06048076923076924
0.1040810903843392 0.04666383314653768 0.02386318813282539
0.1100533699906517 0.0479642197906987 0.02698247294024047
0.1437394736842105 0.008186842105263157 0.06048076923076924
0.1347026315789474 0.008186842105263157 0.0692423076923077
0.1437394736842105 0.008186842105263157 0.0692423076923077
0.1347026315789474 0.008186842105263157 0.07800384615384616
0.1437394736842105 0.008186842105263157 0.07800384615384616
0.1001320693783351 0.05122728256636722 0.02355742043454623
0.1347026315789474 0.008186842105263157 0.007911538461538463
0.1204847812351363 0.08821618819454027 0.03266889389606421
0.1437394736842105 0.008186842105263157 0.007911538461538463
0.1204847811800955 0.08178381183282499 0.03266889389552353
0.1126117144223641 0.07971757930705997 0.02922741675123989
0.1527763157894737 0.008186842105263157 0.1042884615384616
0.1347026315789474 0.008186842105263157 0.1042884615384616
0.1618131578947369 0.03529736842105263 0.08676538461538462
0.09199330992974554 0.02671245727088755 0.007241997435374333
0.1339665575087656 0.02826238157554104 0.05744178046489488
0.1220357802007801 0.05994662996142795 0.02698247289624588
0.1340384389966837 0.04449523209663945 0.0397434665556046
0.1347026315789474 0.008186842105263157 0.01667307692307693
0.132497020747549 0.03750297871779113 0.05010080934855862
0.09771048719157151 0.04983036858908154 0.01375929751057623
0.1618131578947369 0.01722368421052631 0.09552692307692309
0.08768221022943434 0.02980865873440796 0.001621278174630224
0.1437394736842105 0.008186842105263157 0.01667307692307693
0.1306424323089767 0.03226782113539962 0.002458838718098442
0.1401499849723737 0.02985001498958679 0.0624725324137318
0.1618131578947369 0.06240789473684209 0.1042884615384616
0.1347026315789474 0.008186842105263157 0.02543461538461539
0.1437394736842105 0.008186842105263157 0.02543461538461539
0.1169082345841438 0.02697720063188034 0.01315347610339117
0.119299102444089 0.07300821166409401 0.03350095960475306
0.1618131578947369 0.05337105263157894 0.1042884615384616
0.1117072962784968 0.03293424409225221 0.003693200210169033
0.1618131578947369 0.04433421052631578 0.1042884615384616
0.1618131578947369 0.06240789473684209 0.09552692307692309
0.1618131578947369 0.05337105263157894 0.09552692307692309
0.1618131578947369 0.04433421052631578 0.09552692307692309
0.1618131578947369 0.06240789473684209 0.08676538461538462
0.1618131578947369 0.05337105263157894 0.08676538461538462
0.1377321786514917 0.03935756765778739 0.002458838536955536
0.1618131578947369 0.04433421052631578 0.08676538461538462
0.1291046185545033 0.03422351463950404 0.04683150067271678
0.1412385594043975 0.0413696011346804 0.01097338656028281
0.120920728446286 0.03161835448456225 0.006974419251959462
0.1126117144652497 0.09028242058771144 0.02922741670891204
0.1618131578947369 0.02626052631578947 0.09552692307692309
0.1286303989628253 0.02876144055706525 0.01097338630109363
0.1140571702865803 0.04408914644104131 0.02288491131351488
0.09747391727685341 0.04416241007216144 0.02373255434555967
0.1083761034057062 0.08179642524085268 0.02377706054423847
0.09561090362881741 0.04052346363781233 0.03099376894669295
[...]
      <PointData>
        <DataArray type="UInt64" Name="type" format="ascii">
1
1
0
1
1
1
0
1
1
1
1
1
1
1
0
0
1
1
1
0
1
1
1
1
1
1
0
1
1
1
0
0
0
1
0
1
1
1
0
1
0
1
1
0
0
0
1
0
0
0
1
1
0
1
0
0
0
0
1
0
0
0
1
1
0
0
1
0
1
0
0
0
1
1
0
0
0
1
1
0
1
1
0
0
0
1
1
0
1
1
0
0
0
0
0
1
1
1
1
1
1
1
1
1
0
0
1
1
0
0
0
1
1
0
0
0
0
0
1
0
1
0
1
1
0
0
0
1
1
1
1
0
1
1
0
1
0
1
1
0
0
0
1
1
0
1
0
0
0
0
0
0
1
0
1
1
1
1
0
1
1
1
1
1
1
1
0
0
0
0
0
0
0
0
1
0
1
1
0
1
0
1
0
0
0
0
0
0
0
0
1
1
0
0
0
0
1
0
1
1
0
1
0
1
1
1
0
0
0
0
1
0
0
0
0
0
0
0
0
1
1
1
1
1
1
1
0
1
1
0
0
1
0
0
1
0
0
0
1
1
0
0
1
1
1
0
0
0
0
1
1
1
0
1
0
0
0
0
0
1
1
0
0
0
0
0
1
0
0
0
0
0
0
1
1
0
0
0
0
0
1
1
0
0
0
0
0
1
1
0
0
0
0
0
1
1
1
1
1
1
1
1
1
1
1
1
0
0
0
0
0
1
1
0
0
1
0
0
0
1
0
0
0
0
0
1
1
0
0
0
0
0
0
1
0
1
0
1
0
1
1
1
0
1
0
0
0
1
1
1
1
1
1
1
1
1
1
1
1
1
1
1
1
1
1
1
1
1
1
1
1
1
1
1
1
1
1
1
1
1
1
1
1
1
1
1
1
1
1
1
1
1
1
1
1
1
1
1
1
1
1
1
1
1
1
1
1
1
1
1
0
0
1
0
0
0
0
1
0
0
1
0
0
0
0
0
0
0
1
1
0
0
0
0
0
0
0
0
1
1
1
0
0
0
0
1
1
1
1
1
1
1
1
1
1
1
1
1
1
1
1
1
1
1
1
1
1
1
1
1
1
1
1
1
1
1
1
1
1
1
0
1
1
0
1
1
1
1
1
1
1
1
1
1
1
1
1
1
1
1
1
1
1
1
1
1
1
1
1
1
1
1
1
1
1
1
1
1
1
1
1
1
1
1
1
1
1
1
1
1
1
0
0
0
0
0
1
1
0
0
0
0
1
1
1
1
1
1
1
0
0
0
1
0
0
0
1
0
0
0
0
0
0
0
0
1
0
0
0
0
0
0
0
0
0
0
0
1
1
1
0
0
0
0
1
0
0
1
1
1
1
1
1
0
0
0
0
1
1
1
1
0
0
0
1
1
1
1
1
1
1
0
1
1
0
1
1
1
1
1
1
1
1
0
1
1
0
0
0
1
1
1
1
1
1
1
1
1
1
1
1
1
1
1
1
1
1
1
1
1
1
1
1
1
1
1
1
1
1
1
1
1
1
1
1
1
1
1
1
1
1
1
1
1
1
1
1
1
1
1
1
1
1
1
1
1
1
1
1
1
1
1
1
1
1
1
1
1
1
1
1
1
1
1
1
1
1
1
1
1
1
1
1
1
1
1
1
1
1
1
1
1
1
1
1
1
1
1
1
1
1
1
1
1
0
0
0
0
1
1
1
1
0
0
0
0
0
0
0
0
1
1
1
1
1
1
1
1
1
1
1
1
1
1
1
1
1
1
1
1
1
1
1
1
1
1
1
1
1
1
1
1
1
1
1
1
1
1
1
1
1
1
1
1
1
1
1
1
1
1
1
1
1
1
1
1
1
1
1
1
1
1
1
1
1
1
1
1
1
1
1
1
1
1
1
1
1
1
1
1
1
1
1
1
0
1
1
1
1
1
1
1
1
1
1
1
1
1
1
1
0
0
0
0
0
1
0
0
1
1
1
1
1
1
0
0
0
0
0
0
0
0
0
0
0
0
0
0
1
1
1
1
1
1
1
1
1
0
1
1
1
1
1
1
1
1
1
1
1
1
1
1
1
1
0
0
0
0
0
0
0
0
0
0
0
0
0
1
1
1
1
1
1
1
1
0
0
0
0
0
0
0
0
0
0
0
0
0
0
0
0
0
0
0
0
0
0
0
0
0
0
0
0
0
0
0
0
0
0
0
0
0
0
0
0
0
0
0
0
0
0
0
0
0
0
0
0
0
0
0
0
0
0
0
0
0
0
0
0
0
0
0
0
0
0
0
0
0
0
0
0
0
0
0
0
0
0
0
0
0
0
0
0
0
0
0
0
0
0
0
0
0
0
0
0
0
0
0
0
0
0
0
0
0
1
1
1
1
1
1
1
1
0
0
0
0
0
0
0
0
0
0
0
0
0
0
1
1
0
0
1
1
1
1
1
1
1
1
1
1
1
0
1
1
1
1
1
1
1
1
1
1
0
1
0
0
1
1
1
1
1
1
1
1
1
1
0
0
0
0
0
0
1
1
0
0
0
0
1
1
1
1
1
1
0
0
0
0
0
1
1
0
0
0
1
0
0
0
0
0
0
0
0
0
0
0
0
0
0
0
1
0
0
1
0
0
0
0
1
0
0
0
0
0
0
0
0
0
0
0
0
0
0
0
0
0
0
0
0
1
0
0
0
0
1
1
1
1
1
1
1
1
1
1
1
1
1
1
1
1
1
1
1
1
1
1
1
0
0
0
0
1
1
1
1
0
0
0
0
0
0
0
0
0
0
0
0
0
0
0
0
0
0
1
1
1
1
1
1
0
1
0
0
0
0
0
0
0
0
0
0
0
0
0
0
0
0
0
0
0
0
0
0
0
0
0
0
0
0
0
0
0
0
0
0
0
0
0
0
0
0
0
0
0
0
0
0
0
0
0
        </DataArray>
        <DataArray type="Float64" Name="density" format="ascii">
999.023426039564
999.2368162321106
1000
995.4654799001155
1019.657784696609
997.3184532034195
1000
997.3184523178558
995.4654783539868
993.7341762838535
1001.146042106367
1001.14604248932
1000.344212486287
1000.373451730373
1000
1000
997.8377638280589
997.8377650079966
997.2716305653881
1000
997.2716292792584
1000.02843638638
995.5954920615615
999.9989308004194
1000.305653847756
996.8068617155346
1000
1000.624453797299
1000.337768693409
1000.624453901231
1000
1000
1000
1001.716531402511
1000
1002.961870147376
1000.733154741861
999.6548592459612
1002.158708616997
996.7135802630077
1000
999.7467486970902
1000.254807525438
1000
1000
1000
1000.08840871708
1000
1000
1000
999.4046576924753
999.3646317047837
1000
1000.297856199078
1000
1000
1000
1000
999.3646318915137
1004.549097635792
1000.006527844071
1000
999.0093231567195
1000.777721232524
1000
1018.515132247001
1000.043928907859
1000.328712174732
1000.043929078857
1000
1000
1000
1002.611950576477
1000.182168724815
1000
1000
1000
999.6345306055368
1004.835731937608
1000
1004.615445821383
999.6345319659995
1000
1000
1000
1001.10701273321
997.7045910637012
1000
1000.575839754816
1000.014213242777
1000
1000
1000
1002.158708103897
1000
999.8783691877668
995.4285183181415
992.7926124075246
993.5011960178321
1000.90527136166
1003.474430927248
999.6104590549626
998.8377643423947
1000.229864020434
1000
1000
1000.223533798388
998.1879285340352
1000
1000
1000
1001.801741325859
997.1202472393497
1000
1000
1000
1000
1000
996.8068615170423
1018.515132285426
999.7105921850011
1000.328712387386
999.7105925221216
996.6814210282937
1000
1000
1000
1001.300308435761
1000.088408673037
997.1202479587311
999.4046570612604
1004.549096707588
999.6900930714171
999.796772101972
1000
1004.306909917391
1000.006527590295
998.7236571286411
999.4174495748658
1000
1000
1000
996.0632365733539
1002.961871053821
1000
1004.049399644116
1000
1000
1000
1000
1000
1000
998.7236563923833
1000
999.8783696746123
996.7958977937139
1003.666869442232
996.6814206116967
1000
996.7958980367812
995.5173783983984
1002.229550915882
998.8609260503217
999.6500179234523
1000.699721312318
995.430074884574
1000
1000
1000
1000
1000
1000
1000
1000
998.8609260901466
1000
999.9629865328586
1002.684656007683
1000
999.6500178660721
1000
1003.474431089714
1000
1000
1000
1000
1000
1000
1012.609920955907
1000
1001.76321806163
999.0093232362607
1000
1000
1000
1000
1001.999714529846
1000
1001.7632180037
998.9566716322562
1000
994.6876185630297
1000
999.3852362518738
998.2814508441289
1000.229863937143
1000
1000
1000
1012.609921008469
998.061140743392
1000
1000
1000
1000
1000
1000
1000
1000
1001.579489178003
1001.887725092773
1000.575840411256
1001.579489608221
1000.905271895372
1000.009274877001
1005.792506620529
1000
999.0485566039496
999.2368164320992
1000
1000
995.1490874248127
1000
1000
1002.252528560998
1000
1000
1000
1000.978715987239
1000.37345159437
1000
1000
999.4567618884807
999.4567623942263
997.6671586526179
1000
1000
1000
1000
997.1782756738362
1004.983390146782
1004.980418323852
1000
998.0093290452118
1010.208315320557
1009.216564085177
1000
1001.432495268778
1012.609920104276
998.0093279560298
1000.036015099893
1000
1000
1000
1000
1000
1000.03601464467
1000
1000
1000
1000
1000
1000
998.9502952563915
1000.733154542729
1000
1000
1000
1000
1000
1003.474431017092
998.9502950555141
1000
1000
1000
1000
1000
996.6814210661728
1000.46031625406
1000
1000
1000
1000
1000
998.860926276182
1001.671625664268
1000.460315763261
999.9201794659878
999.920179362558
1000.26996948125
994.5931721427116
995.8722485545902
998.2149087283641
997.1782752444385
1001.54854603372
999.9229211683464
1000
1000
1000
1009.216565846942
1010.208316176442
999.9229211536308
997.4946416893471
1000
1000
1000.77772144916
1000
1000
1000
997.1924554961549
1000
1000
1000
1000
1000
998.1596955770248
996.9748092756705
1000
1000
1000
1000
1000
1000
1002.068180885352
1000
999.023426016196
1000
1000.309028596749
1000
994.5219430841155
1003.666868565903
995.5954918495679
1000
1004.049399266553
1000
1000
1000
1004.615447694166
996.063236366505
1001.46020670479
1002.952012560501
1000.677215661723
990.5271965394297
1002.684654531172
997.6660221749884
1002.542778204557
999.8485155515982
988.8887201617359
1001.999714511654
1013.308017153173
990.5271962235011
1000.295337741008
1000.291370921113
1000.30902982601
1000.295338521025
1000.291371528635
998.1596961672088
996.9748084906597
1000.677217458902
1001.460205593921
1000.297500291045
999.808096444736
1000.014213383001
999.84851484937
1000.314569318673
1001.303046417888
997.8309009040977
999.8080959185528
999.5653467176071
1001.303047741045
992.1694410943702
999.4566460318174
992.1694450133416
988.8887202944367
1000.978716546706
998.5257950744586
1000.8274109517
1002.54277825976
998.1879287707528
997.8309010549524
1002.611950397324
1005.053953350851
999.7105919927475
998.9522439143257
998.9522438149124
994.5219437240834
998.5365972361355
998.5365971741203
999.235674276057
999.2356743198058
999.385236563821
1013.308017221553
1001.801741105925
999.7967720929364
1000.297500181651
1000.833548315879
1000.833548144729
994.6876185802264
1002.229550660706
1000.141822015305
1000
1000
1000.141821184117
1000
1000
1000
1000
995.517380273273
1000
1000
1000.827411784242
1000
1000
1000
1000
1000
1000
1000
1002.487190961808
999.7972073605898
1000
1000
1000
1000
1001.432495161455
1000
1000
1000
998.525794947089
997.1924541865233
999.7972068582845
1000
1000
1000
1000
999.5653459039794
1001.107012896021
999.7972077028281
1005.792506279732
1004.306910538779
998.8377639959481
992.7926128848886
1004.306910293245
1002.95201319489
998.8377641111596
1004.835731530957
997.6660233840616
995.4300738022833
999.4566459855472
1001.300306652157
1005.053952943755
992.7926130331095
999.5653459714744
997.7045912693305
1001.300305684568
995.4300744152123
997.1924547439925
1001.107013121071
1004.835731903368
997.7045914121662
1000.314569467278
1001.671625830535
1001.671625623201
1000.739516212831
995.8722490722569
995.8722488753815
1000.739516064617
1000.739516083533
1000.314569291666
1000.739516179153
1000
998.5257947937448
1005.792506418807
1000
1001.548546839377
999.0093231310627
1001.763217770664
999.009323082917
1001.887725119948
1000.733154683672
999.634531560118
998.0611408678986
1000.337768747043
1001.716531991166
998.9566711527525
1002.961870111428
997.8309008910687
1000.01421318844
999.3852367074577
996.8068619137282
997.1202478353424
999.6500179663152
1000.141821442527
999.7105918866793
1000.777721489705
1004.983392082679
999.8080961945088
1000.291371303234
1000.141822302882
1000.182168986871
1002.684656199751
1002.684654513457
1000.297500138541
997.4946422524141
1002.068180468921
1002.487190472027
999.7967724629866
998.5365975332458
998.1879282232456
998.1879286216459
1000.739516080407
1000.739516155619
1000.739516017826
1000.73951604435
1000.97871543418
995.5954927898396
995.4654775230215
1000.733155091589
1000.373451965959
998.5257948151143
997.12024700816
1000
1000
1000
1000
1004.549096243583
999.236816346189
1001.107012811442
1000
1000
1000
1000
1004.615446235047
999.7972069363246
992.7926123011647
998.8377641785121
1005.79250628494
1002.611949885617
1001.300308023099
1000
1000
1000
1004.30690946161
1000
1000
1000
996.0632366762068
1000
1000
1000
1000
1000
1000
1000
1000
995.4300739878978
1000
1000
1012.60992005046
1000
1000
1000
1000
1000
1000
1000
1001.432495418229
1001.146042279733
996.7958972761265
996.7135807897681
1000
1009.216563829737
1010.208315069213
1018.515132181531
1013.308015238175
1000
1000
1002.952014849261
1000.30902951897
1000.575840332345
997.7045910442934
999.8485150104673
998.1596961852072
1000
1000
1000
1000
1004.049399355647
1003.666869001936
997.6660211469037
994.5931722517414
1000
1000
1000
1001.303047006691
996.9748097302787
1000.677215991988
1002.611950698823
999.0234256191784
1004.835731657601
1002.542778040357
1000
999.4566465475077
1000.460316055514
1000
1001.999715026927
999.3852365161891
988.8887196146559
1000.295338751876
995.5173781779188
1000.827411979609
998.0093281469786
1000.036015206119
1000
1001.460207219191
1005.053953241995
1000
1000
1000
998.214908904067
990.5271963339792
994.5219435391592
1001.801741736668
1002.229551063126
992.1694443017377
994.6876199383306
998.9522437590143
999.4046574253852
1000.314569669075
995.8722488234827
999.5653472302471
997.1924549618243
1001.671625783662
1003.474431529194
998.8609261138806
996.6814209402606
1000.827410497795
999.6500175605966
997.1782754226956
1000.297499693375
995.5173800370501
999.9229209592812
1000.90527190527
994.5219438516763
1000.978715544727
1000.291371929914
995.8722488822693
998.5257950459334
1005.05395400555
998.5257951006785
995.4300748570072
1001.300306423273
994.5219446452173
1004.306909703092
999.3852369561408
999.5653460778592
995.872248780551
1000.295337902178
1000.314569489684
1001.763217851237
1002.611949880327
999.7972063276671
1001.763217946394
1000.314569344667
1000.33776868223
997.704591625411
999.45664543711
1000.014213291262
992.7926128373995
1000.297499326799
997.1924541942881
1005.792506480985
998.1879283609705
998.5365970955901
1002.961870343581
1002.961870527682
1002.229550957857
999.3852361281301
1001.999714479505
996.806861063858
997.8309007677108
1001.300308236376
1000.014213379253
997.7045907089472
997.830901011682
1001.107012552368
997.1924556135619
1000.295339288433
1000.297500690472
1002.542778550028
998.1879287998884
1004.306910179639
999.7105920533678
1004.835731323112
996.8068625835864
999.7105921348279
998.8377640671265
996.6814206842381
996.6814213868588
998.860926152688
999.5653468016404
998.8609259900776
1001.999715069918
998.5365974964702
999.6500179374658
1002.611951107568
999.6500179288003
999.7972080730634
1003.474431010812
1003.474431250186
1002.542777964392
999.7967721620167
992.7926123702805
1004.835732098648
999.7967723066752
998.8377639354165
1000.291370929473
1001.107013012955
1001.671625703537
1005.792506504444
1001.671625700986
1002.229550752525
1002.952012655376
997.6660237842282
1000
1000
1000
1000
1001.801741315267
1001.801741585762
999.6345316886144
999.6345305713843
1000
1000
1000
1000
1035.57418652288
1036.906386472005
1000.170420880295
1000.134882543158
999.8080959004759
999.8080966054829
999.6345319016534
997.1924547012238
1002.961870245349
1000.57583993255
999.8080960557332
1000.014213276104
1004.835731547354
1002.068180437811
997.8309003757743
996.8068617317684
997.1202470992114
999.236816139689
1002.487190479684
1000.978715364135
999.5653462404464
998.5365975801708
1002.684654490395
1001.801741554305
999.796772440011
1000.827412121769
1002.542778072016
999.8080966176007
996.9748088664027
999.7967720960585
1001.8877250552
1000.182168802565
1002.487190932299
1000.733154693795
1013.308016909845
1000.733155269646
998.860926206504
1002.961870389684
998.8609261262241
996.6814209989834
999.7105918525439
999.7105923902875
1003.666868506713
1000.291371274419
1001.763218099384
998.061140960254
998.5365973351908
1002.684656143837
996.0632364701681
1001.801741230638
998.2149086630365
988.8887183455004
997.494642341087
994.6876190507842
999.0093233250303
1001.303048336978
996.6814206336719
1001.716532056505
995.4654796726577
995.5954921901175
1000.141821236441
1000.141822129543
1000.182168872765
1001.460206288653
990.5271956530211
994.5931718608012
1001.548547126498
1000.297500537569
997.1924553263229
999.5653474028412
1004.835731866873
997.4946416823514
1000.291371581035
1000.8274102663
1000.141821375218
1000.14182190517
1001.548545889316
998.956671152652
1000.297499653555
1002.542778501601
994.5931723500942
996.8068622790449
1001.71653143866
1002.068180876612
1002.684654390449
998.2149087969585
999.8080964669749
1000.827412356395
1000
998.9566717053027
1003.474430949786
995.872248926484
1001.671625774097
1000.314569431434
1000.014213373922
1001.763218288666
996.8068621793553
998.5365975278014
1002.684656426802
997.1202480591669
1001.801741455325
1000.309030231101
999.0234266237584
998.1596963859886
1000
1000
1000
1000
1000
1005.0539533194
1000
1001.432495108301
1002.229550823613
1002.542778869286
1001.999715001099
1000.295339030475
999.6345307606005
1000.827410890313
1000
1009.216565658247
1000
1000
1000
1000
1000
1000
1000
1000
1000
1000
1000
1000
1004.049399157479
999.0093229544906
997.830900493664
1000.291372088936
1004.615448734376
999.8485134893851
997.6660256848874
997.1202477485249
999.4566458794867
1000
992.1694394327268
1002.952012146403
1000.677219105517
998.06114077154
998.187928704554
998.1879283269975
1003.474431456615
999.796772238117
1000.314569462392
995.872248913149
1001.671625687664
1002.961870702515
999.0093231425072
995.5173798268479
1000.014213432384
1000.337769034023
1000
1000
1000
1000
1000
1000
1000
1000
1000
1000
1000
1000
1000
997.1202474200409
997.830901001505
999.6345306314189
999.0093232039999
1000.733154834096
1000.733154447347
1001.763217952098
1001.887725065694
1000
1000
1000
1000
1000
1000
1000
1039.930669059878
1036.906386498356
1035.574186549923
1028.501262180791
1031.698668107818
1017.585421072448
1000
1000.148754093287
1001.250222980491
1000
1000
1000.16676168639
1036.906386460416
1000
1039.930669044326
1000.000000603784
1000.166761685701
1000.000000603784
1000.134882543281
1000
1000.051999332969
1000
1039.930668988107
1017.585421070575
1000.166761686495
1000.109934694971
1000.134882543305
1017.585421039583
1031.698668111715
1000
1000
1000
1000.170420880325
1000.170420880517
1000
1035.574186568256
1000
1001.250222981821
1000.170420880552
1000.051999332943
1000.114227034475
1000.109934695384
1000
1000.114227034227
1035.574186576502
1000.109934695633
1000
1028.501262185586
1000.051999332846
1000.166761685892
1000
1000
1000.134882543318
1000.148754092769
1000.114227034607
1000
1041.364315835616
1000
1041.36431590816
1000
1000
1000
1000
1041.364315877219
1031.698668110114
1000
1000
1036.906386463658
1000
1000.148754091878
1041.364315867424
1000
1000.148754092577
1000
1028.501262202823
1039.930669071142
1001.250222980718
1000.000000603784
1000
1000
1000
1035.57418652373
1028.501262196713
1000
1000
1031.698668151048
1017.585421090428
1000.000000603784
1000.109934696124
1000
1000
1000
1001.250222984692
1000
1000
1000
1000
1000
1000.170420880355
1000.051999332914
1000.114227034887
1000
1000.575839907381
1000.677218310444
995.4654796353822
990.5271957502534
1013.308016859997
988.8887187482616
992.1694378096281
1001.303048598192
1010.208316555632
1009.216565925746
1000
1000
1000
1000
1000
1000
1000
1000
1000
1000
1000
1000
998.1596962761698
1004.049399318906
1000
1000
1003.66686888124
996.0632363992856
1004.615448691177
995.5954923731991
1001.460206017018
1000.309030800078
996.9748085989806
999.0234264748245
999.8485144931194
994.6876190548097
999.236815879807
1000
998.2814509458107
1000.624454063658
1000.624454107843
1000.009274854586
1000.373451360995
1019.657785603855
999.8783697960268
999.364631805985
997.318452170651
997.3184530810878
1000
993.5011959894264
1000
1000
1000.028436376514
993.7341785035179
1000.344212276514
1001.146042300966
995.1490873373017
996.7958968871428
1002.252528348209
997.8377638798777
997.8377649351186
995.4285176874569
1000
1000
1000
1000
1000
1000
999.0485561620492
998.7236561905155
1000
1000
1000
1000
998.0093289181102
1000.460316233749
1000.036015350992
1000.833548034122
997.2716302581708
997.2716289993326
1000
1000
1000
1000
1000
1001.579488964874
1001.579489545493
1000
1000
1000
999.610459123469
1000
1000
1000
1000.006527375628
1000
1000
1000
1000
1000
1000
1000
1002.158708459161
1000
1000.328712212092
1000
999.4046574808613
1000
1000
1000.833547995891
1000
1000
1000
1000
999.6900929468496
1000
1000
1000
1000
1000
1000
1000
1000
1000
1002.158708830262
1000
1000
1000
1000
1000
1000
1004.549097403417
1000.006527571582
1000
1000
997.6671586170171
1018.515132383663
1000.328711949774
1000
1000
997.1782749787055
999.9201793934454
999.9201792730274
999.4567622092018
999.4567616459943
999.9229214872694
1000.269969179801
998.7236567611734
998.9502952730001
998.9502949607365
1004.980417784208
1000.905272000125
999.2356743433627
999.235673982625
999.3646320727497
1000.22986413374
1000.043928968856
1000.777721220231
998.9522439302893
1000.043928762202
1000.297856229743
999.8783693927065
999.7467485428223
1000
1000
1000
1000
1000.229863883039
999.9629866091865
1000.088408639972
1000.088408787568
1000
1000
1000
1000
1000
1000
1000
1000
1000
1000
1000
1000
1000
1000
1000
1000
1000
1000
999.9989308663563
1000.30565386016
1000.699721456184
999.4174497375552
1000.254807498921
999.6548593107053
1000
1000.223533777255
1000
1000
1000
1000
1000
1000
1000
1000
1000
1000
1000
1000
1000
1000
1000
1000
1000
1000
1000
1000
1000
1000
1000
1000
1000
1000
1000
1000
1000
1000
1000
1000
1000
1000
1000
1000
1000
1000
1000
1000
1000
1000
1000
1000
1000
1000
1000
1000
1000
        </DataArray>
        <DataArray type="Float64" Name="density_prev" format="ascii">
998.9556243896717
999.1950249860986
1000
995.8394630601936
1019.758715372732
997.5193089228402
1000
997.5193080588185
995.8394613320371
993.4225690071351
1001.22239364466
1001.222393959133
1000.328939153327
1000.372260201684
1000
1000
998.0444553876
998.0444565482959
997.4503494049452
1000
997.4503481421776
1000.124062333582
995.6363842923573
1000.105737302541
1000.413671084703
996.9668446876399
1000
1000.684834032171
1000.133676404457