<VTKFile type="PolyData" version="1.0" byte_order="LittleEndian" header_type="UInt64">
  <PolyData>
    <Piece NumberOfPoints="1293" NumberOfVerts="1293">
      <Points>
        <DataArray type="Float64" Name="Points" NumberOfComponents="3" format="ascii">
0.07937593152963944 0.1305988613156674 0.03091580958082516
0.1076629890411392 0.1179998093103929 0.03926023472946805
0.07278359129178023 0.134818174505589 0.0293935050552668
0.07895141177093053 0.1205326855561537 0.01571587428022501
0.09850740161846065 0.1195356395571948 0.04291488600439588
0.1309574066612884 0.1219102238128253 0.04533642414674791
0.1219102237569072 0.1309574066413246 0.04533642409894714
0.1083110074648615 0.1149694182829166 0.01855848339122314
0.1265474769839103 0.1349786548635732 0.04936129840752562
0.1349786549342206 0.126547477001431 0.04936129832259196
0.1465257630602013 0.1370640611121372 0.06623330854908212
0.1370640611109341 0.1465257630289964 0.06623330854406757
0.1054460118795918 0.1146217540570706 0.03167419655451746
0.0822569344181501 0.1255690846674016 0.02425786499890846
0.1123808365250415 0.1123808364196924 0.02913606827766433
0.0986490535864034 0.1080263695750254 0.03903234567086685
0.1448396791052114 0.14483967910893 0.07052260600131818
0.1037379906793894 0.1206613336739914 0.03499862225270485
0.07777426757926557 0.137247622900733 0.02790358876049728
0.1123894955250616 0.1259803658385655 0.03750185221749657
0.1191680269169796 0.1309579665687664 0.03833179672063428
0.1344225808240284 0.1231903792660318 0.04134869817735112
0.1355969988291205 0.1467164710961102 0.06257607307292166
0.1231903793270875 0.1344225808766864 0.04134869814476815
0.1168080414020738 0.1168080413181981 0.02516122725918172
0.128324937985773 0.138690551981227 0.04553648673479516
0.1386905520778168 0.1283249381461641 0.04553648681510199
0.1309579665075163 0.1191680267580089 0.03833179669221409
0.08278050394828422 0.1195595538736193 0.01415246206671219
0.102744359720274 0.1192752266937482 0.02770985219175362
0.07279649142783147 0.137277242724589 0.02697784231316593
0.1096147810114776 0.1176638690734332 0.02323019248955117
0.1079041156140077 0.1275148097432212 0.03374628879724806
0.146716471128835 0.1355969988283029 0.06257607310817678
0.08261472644660785 0.1366707732468173 0.02826029568417307
0.1324274648572235 0.1424662175165949 0.05459478112994503
0.1049678059636764 0.1170318322264486 0.003448766653938856
0.09948547716228327 0.1207876517831956 0.02466345417176566
0.1130078454585686 0.1294690549532918 0.02607743093036926
0.1424662175088606 0.1324274648258613 0.05459478115458649
0.1157544912038637 0.1454642365959545 0.01833830131739757
0.1072823397219231 0.142930779330026 0.01092882103045248
0.1153455327407957 0.1452007616102731 0.01553105757903784
0.116628947368421 0.1618131578947369 0.09552692307692309
0.1075921052631579 0.1618131578947369 0.09552692307692309
0.116628947368421 0.1618131578947369 0.08676538461538462
0.1075921052631579 0.1618131578947369 0.08676538461538462
0.116628947368421 0.1618131578947369 0.1042884615384616
0.1075921052631579 0.1618131578947369 0.1042884615384616
0.09859396212438765 0.11909363798381 0.003071514314625988
0.1080995360901665 0.1344191138779328 0.02088234582403665
0.07724673981349006 0.1404696030349917 0.02431287843200228
0.1089995554189584 0.1320381613986708 0.01634247660901933
0.102972335229242 0.1445190809578732 0.01580593688142885
0.1102080716935729 0.1440943776051701 0.01734707425979488
0.1013052760397358 0.142415781897022 0.01051636800568046
0.1006251916739471 0.1287677604479439 0.03317036086408331
0.1112279726656767 0.1356045457919162 0.004789518289648173
0.1123283506794723 0.1420440133592257 0.01116012424477924
0.08290479294057451 0.1136882809451485 0.002700836632640182
0.1000835783933558 0.1250448213663343 0.01813031787462254
0.116628947368421 0.1618131578947369 0.07800384615384616
0.1149694184213845 0.10831100738843 0.01855848346003242
0.1264229179134959 0.1203195089583195 0.008473123765793671
0.1203195088882736 0.1264229178639151 0.008473123805957262
0.07856370913099806 0.113095633164471 0.005004518199323495
0.08238153415188587 0.1429433525155273 0.02066873783455088
0.1356866227642811 0.1356866229394849 0.03004066620789813
0.07739964188957568 0.1439550769171957 0.01754899297722885
0.1224245456124743 0.149440890311017 0.02213259791391361
0.1494408903591422 0.1224245456464503 0.02213259795122721
0.1512940863691142 0.1418777237569107 0.04720314276731147
0.1418777236958707 0.1512940863686011 0.04720314272255016
0.1506367506601896 0.1316227251583468 0.02987654927927254
0.1316227249566979 0.150636750657585 0.02987654924895812
0.1500283819327601 0.1500283819002226 0.0630891252557861
0.08241970663568872 0.1429859149431227 0.01244958931109503
0.07632870302140399 0.1437334245219091 0.01193368363049689
0.08266825621650702 0.1398039604192466 0.005881389158948793
0.1521615070385927 0.1421207009611987 0.04158605045439789
0.1507185299294732 0.1507185298898793 0.05692121429360213
0.1075921052631579 0.1618131578947369 0.07800384615384616
0.1421207010017574 0.1521615070611229 0.04158605045174447
0.1256657894736842 0.1618131578947369 0.09552692307692309
0.08170638997887937 0.1388994632661225 0.000290706303376149
0.1437394736842105 0.1618131578947369 0.08676538461538462
0.116628947368421 0.1618131578947369 0.0692423076923077
0.1075921052631579 0.1618131578947369 0.0692423076923077
0.116628947368421 0.1618131578947369 0.06048076923076924
0.1075921052631579 0.1618131578947369 0.06048076923076924
0.116628947368421 0.1618131578947369 0.05171923076923078
0.1347026315789474 0.1618131578947369 0.08676538461538462
0.1256657894736842 0.1618131578947369 0.08676538461538462
0.1075921052631579 0.1618131578947369 0.05171923076923078
0.116628947368421 0.1618131578947369 0.04295769230769231
0.07573780717244069 0.1395689506664204 0.006344994907675156
0.1075921052631579 0.1618131578947369 0.04295769230769231
0.06937480820833372 0.1287677603463987 0.03317036093953456
0.116628947368421 0.1618131578947369 0.03419615384615385
0.08048157894736842 0.1618131578947369 0.007911538461538463
0.1075921052631579 0.1618131578947369 0.03419615384615385
0.1038994603784675 0.134283331060107 0.002990345589675016
0.08048157894736842 0.1618131578947369 0.01667307692307693
0.116628947368421 0.1618131578947369 0.02543461538461539
0.1075921052631579 0.1618131578947369 0.02543461538461539
0.116628947368421 0.1618131578947369 0.01667307692307693
0.1127244112699507 0.1443463360897678 0.01420197664922723
0.1075921052631579 0.1618131578947369 0.01667307692307693
0.1028609266029138 0.1330538688788576 0.02884444447856275
0.116628947368421 0.1618131578947369 0.007911538461538463
0.1075921052631579 0.1618131578947369 0.007911538461538463
0.08048157894736842 0.1618131578947369 0.02543461538461539
0.1068698710726232 0.1399106258349965 0.007870588389557714
0.1031380436893776 0.1310034299769519 0.03109105184137731
0.08048157894736842 0.1618131578947369 0.03419615384615385
0.07144473684210526 0.1618131578947369 0.04295769230769231
0.08048157894736842 0.1618131578947369 0.04295769230769231
0.07144473684210526 0.1618131578947369 0.05171923076923078
0.08048157894736842 0.1618131578947369 0.05171923076923078
0.07144473684210526 0.1618131578947369 0.06048076923076924
0.08048157894736842 0.1618131578947369 0.06048076923076924
0.08022888584315642 0.1194313927449449 0.008907795348130293
0.07738287315244512 0.1278553031459661 0.0170991604472778
0.1437394736842105 0.1618131578947369 0.09552692307692309
0.1347026315789474 0.1618131578947369 0.09552692307692309
0.1437394736842105 0.1618131578947369 0.1042884615384616
0.1364531779981617 0.1364531780538618 0.06793459835717582
0.1347026315789474 0.1618131578947369 0.1042884615384616
0.1256657894736842 0.1618131578947369 0.1042884615384616
0.08829361006441445 0.1388994633239467 0.0002907063183252205
0.09897413648236152 0.1398538410904031 0.005219882086129404
0.07061390664636558 0.1407155433824742 0.02196822555903438
0.07423522161521855 0.1282245427091031 0.04054457069324138
0.0727124025545394 0.1436016847574214 0.01715514479441718
0.07353949873840626 0.1208793835326678 0.01159739385372725
0.07051452278655808 0.1207876518169754 0.02466345423039185
0.1416992404779836 0.1416992405246139 0.07112577259091681
0.1148155908409128 0.114815590863417 0.04847754465690916
0.1431975787473698 0.143197578710981 0.07106863931930324
0.04098051291907595 0.1290194839833281 0.05209244150585911
0.04808977615472957 0.130957406753538 0.04533642414788582
0.04345252294236741 0.1349786549471867 0.04936129848336544
0.05083197321065555 0.1309579665329659 0.03833179674452734
0.04680962059473041 0.1344225809445205 0.04134869829771478
0.09260035809860072 0.143955077051483 0.01754899296570956
0.1349221924385991 0.1349221925398536 0.06552523641813505
0.05319195864116862 0.1168080414143319 0.02516122724759048
0.1271173049882948 0.1192772920883311 0.04440917033870091
0.08758029344764297 0.1429859150208108 0.01244958928301644
0.09426219285899094 0.1395689508839125 0.006344994861086385
0.09367129695292581 0.143733424766581 0.01193368362507546
0.1345448454828252 0.1223460276246428 0.02908841474096874
0.08733174386182817 0.1398039601304845 0.005881389038560237
0.09261712692169961 0.1278553033986985 0.01709916060706452
0.1402402542115273 0.1410226129062764 0.005732838470584396
0.1410226128841717 0.1402402538046688 0.005732838224854863
0.1393565108950901 0.1393565108637672 0.0002655076637101081
0.1256657894736842 0.1618131578947369 0.007911538461538463
0.1347026315789474 0.1618131578947369 0.007911538461538463
0.1437394736842105 0.1618131578947369 0.007911538461538463
0.1527763157894737 0.1618131578947369 0.007911538461538463
0.1618131578947369 0.1618131578947369 0.07800384615384616
0.1618131578947369 0.1527763157894737 0.07800384615384616
0.1618131578947369 0.1437394736842105 0.07800384615384616
0.1618131578947369 0.1347026315789474 0.07800384615384616
0.1618131578947369 0.1256657894736842 0.07800384615384616
0.1618131578947369 0.1618131578947369 0.0692423076923077
[...]
      <PointData>
        <DataArray type="UInt64" Name="type" format="ascii">
1
1
1
1
1
1
1
1
1
1
1
1
1
1
1
1
1
1
1
1
1
1
1
1
1
1
1
1
1
1
1
1
1
1
1
1
1
1
1
1
1
1
1
0
0
0
0
0
0
1
1
1
1
1
1
1
1
1
1
1
1
0
1
1
1
1
1
1
1
1
1
1
1
1
1
1
1
1
1
1
1
0
1
0
1
0
0
0
0
0
0
0
0
0
0
1
0
1
0
0
0
1
0
0
0
0
1
0
1
0
0
0
1
1
0
0
0
0
0
0
0
1
1
0
0
0
1
0
0
1
1
1
1
1
1
1
1
1
1
1
1
1
1
1
1
1
1
1
1
1
1
1
1
1
1
1
1
0
0
0
0
0
0
0
0
0
0
0
0
0
0
0
0
0
0
0
0
0
0
0
0
0
0
0
0
0
0
0
0
0
0
0
0
0
0
0
0
0
0
0
0
1
0
0
0
0
0
0
1
0
0
0
0
0
0
0
0
0
0
0
0
0
0
0
0
0
0
0
0
0
0
0
0
1
1
1
1
1
1
0
1
0
1
1
0
1
1
0
1
1
0
1
1
0
1
1
0
1
1
1
1
1
1
1
1
1
1
1
1
1
1
1
1
1
1
1
1
1
1
1
1
1
1
1
1
1
1
1
1
1
1
1
1
1
1
1
1
1
1
1
1
1
1
1
1
1
1
1
1
1
1
1
1
1
1
1
1
1
1
1
1
1
1
1
1
1
0
1
0
1
1
1
1
1
1
1
1
1
1
0
1
0
1
1
1
1
1
0
1
1
1
1
1
1
1
1
1
1
1
0
1
1
1
1
1
1
1
1
0
1
1
1
1
0
1
1
1
1
1
1
1
1
0
0
1
1
0
0
1
1
1
1
1
1
0
0
1
1
0
0
1
1
1
1
1
1
1
1
1
1
1
1
1
1
1
1
1
1
1
1
1
1
1
1
1
1
1
1
1
1
1
1
1
1
1
1
1
1
1
1
1
1
1
1
1
1
1
1
1
1
1
1
1
1
1
1
1
1
1
1
1
1
1
1
1
0
0
0
0
0
0
0
0
0
0
0
0
0
0
0
0
0
0
0
0
0
0
0
0
0
0
0
0
0
0
0
0
0
0
0
0
0
0
0
0
0
0
0
0
0
0
0
0
0
0
0
0
0
0
0
0
0
0
0
1
0
0
0
0
1
0
0
0
0
1
0
0
0
0
1
1
1
0
0
0
0
0
0
0
1
1
1
1
1
1
1
1
1
1
1
1
1
1
1
1
1
1
1
1
1
1
1
1
1
1
1
1
1
1
1
1
1
1
1
1
1
1
1
1
1
1
1
1
1
1
1
1
1
1
1
1
1
1
1
1
1
1
1
1
1
1
1
1
1
1
0
1
1
1
0
0
0
0
0
0
0
0
1
1
1
1
1
1
1
1
1
1
1
1
1
1
1
1
1
1
1
1
1
1
1
1
1
0
0
0
0
0
1
0
0
1
1
1
1
1
1
1
1
1
1
1
0
0
0
0
0
0
0
0
0
0
0
0
0
0
1
1
1
1
1
1
1
1
1
1
1
1
1
0
1
1
1
1
1
1
1
1
1
1
1
1
1
1
1
1
1
1
1
1
1
0
0
0
0
0
0
0
0
0
0
0
0
0
0
0
0
0
0
0
0
0
0
0
0
0
0
0
0
0
0
0
1
1
1
1
1
1
1
1
1
1
1
1
1
1
1
1
1
1
1
1
1
1
1
1
1
1
1
1
1
1
1
1
1
1
1
1
1
1
1
0
0
1
1
1
1
1
0
1
1
1
1
1
1
1
1
0
1
0
1
0
1
0
1
0
0
1
1
1
0
0
1
0
1
1
1
1
1
1
1
1
1
1
1
1
1
1
1
0
1
1
1
1
1
1
0
0
1
1
1
1
1
0
0
0
1
0
0
0
0
0
0
0
0
0
0
1
0
1
1
0
0
0
0
0
0
0
1
1
1
1
1
1
1
1
1
1
1
1
1
1
1
1
1
1
1
1
1
1
0
0
0
0
0
0
0
0
0
0
0
0
0
0
0
0
0
0
0
0
0
0
0
0
0
0
0
1
0
0
0
0
1
0
0
0
0
0
0
0
0
0
0
0
0
0
0
0
0
0
0
0
0
0
0
0
0
0
0
0
0
0
1
0
1
1
0
1
1
1
1
1
0
1
0
1
0
0
1
1
1
1
1
1
0
1
1
1
1
1
0
0
0
0
0
0
0
0
0
0
0
0
0
0
0
0
0
0
0
0
0
0
0
0
0
0
0
0
0
0
0
0
0
0
0
0
0
0
0
0
0
0
0
0
0
0
0
0
0
0
0
0
0
0
0
0
0
0
0
0
0
0
0
0
0
0
0
0
0
0
0
0
0
0
0
0
0
0
0
0
0
0
0
0
0
0
0
0
0
0
0
0
0
0
0
0
0
0
0
0
0
0
0
0
0
0
0
0
0
0
0
0
0
0
0
0
0
0
0
0
0
0
0
0
0
0
0
0
0
0
0
0
0
0
0
0
0
1
0
1
1
1
1
1
1
1
1
1
1
1
1
0
0
0
0
0
0
0
0
0
0
0
0
0
0
1
1
1
0
1
1
1
1
1
1
1
1
1
1
1
1
1
1
1
1
1
1
1
1
0
0
0
0
0
0
0
0
1
1
1
1
0
0
0
0
1
1
1
1
1
1
1
1
1
1
1
1
1
1
1
1
1
1
1
1
1
1
1
1
1
1
1
1
1
1
1
1
1
1
1
1
1
1
1
1
1
1
1
1
1
1
1
1
1
1
1
0
1
1
0
1
1
1
1
1
1
1
1
1
1
1
1
1
1
0
0
0
0
0
0
0
0
0
0
0
0
0
0
0
0
0
0
0
0
0
0
0
0
0
0
0
0
0
0
        </DataArray>
        <DataArray type="Float64" Name="density" format="ascii">
1002.308711940074
1000.004544957771
999.8062517679709
993.9935819383325
1000.595522213061
1000.128293221906
1000.128293561693
996.355243954329
1001.694456573836
1001.694456287225
999.7789215320884
999.7789212555086
999.8554187295066
999.7301473946762
1000.67520515277
1001.597687767985
999.6836143524995
1000.435881437853
1001.442984713418
997.5621007807424
1001.001663515603
998.1193656848417
999.0765892081508
998.1193658570161
1002.953377538107
997.9267970797505
997.926797100356
1001.001664020399
999.6145525774951
997.9668672720159
1000.195806800907
998.0716315703538
1001.258431483242
999.0765894357949
1002.938360400799
999.2281891573761
1002.04313461017
995.8653245568055
1003.712397474593
999.2281893870464
1001.994433591929
1000.455594056425
999.3506809601844
1000
1000
1000
1000
1000
1000
1000.138626476458
1008.56445185749
1000.122158402379
1004.010573104001
983.3701471683586
992.5228723647162
1006.873319105066
997.9565034048971
998.4200078790633
1002.758672506361
1001.905266290137
1002.267886762805
1000
996.3552438982804
997.3705016457844
997.3705009804105
1002.832472123084
996.3653525333156
982.0292521245457
991.8356222664427
992.8202428512515
992.8202430406666
1001.183116611655
1001.183116860766
999.8865439409345
999.8865433615757
998.0260441779934
1008.566390724991
995.806634820642
998.3536344417574
998.0822699037321
1000.265877243779
1000
998.082270012574
1000
998.042623965933
1000
1000
1000
1000.058990735477
1000
1000
1000
1000
1000
1000
1007.157132299307
1000
997.9565032600508
1000
1007.303827287151
1000
1000.835027649903
1005.050656682506
1000
1000
1000
1002.30382061383
1000
1001.908204600294
1023.06287052235
1015.362888404871
1000
1002.369707766768
1000.135306902756
1000
1000
1000
1000
1000
1000
1000
1000.066301132204
1002.537243518647
1000
1000
1000
1000.851693436896
1000
1000
998.0426240653912
1002.390364927156
995.3777300077525
998.692893495863
997.9528900777851
998.5784247685197
995.8653249081848
1001.52751319315
1001.47975611613
1000.078425044319
998.9305628879471
1000.128293243127
1001.694456337369
1001.001663575617
998.1193654941155
991.8356226638201
1000.289782863269
1002.953377976856
999.2395255516217
1008.566390469612
1007.157131365427
995.8066327721962
1004.337891450138
998.3536354364157
1002.537243765637
998.5977148214059
998.5977150079276
998.4111026634664
1009.352365051526
1014.463287861344
1000.092906942347
1000.663233955456
1000
1000
1000
1000
1000
1000
1000
1000
1000
1000
1000
1000
1000
1000
1000
1000
1000
1000
1006.123522259855
1000
1000
1000
1000
1003.129664681993
1000
1000
1000.356401931977
1000
1000.369019510287
1000.920776799663
1000.979090467278
1000
1000.211195445931
1000.835146306339
1000.918671127249
1003.129665137679
1000.178516668696
1000.663234064407
1000.092906799338
1014.463287913181
997.9267968870453
1000.918671165846
1000.835146404348
1000
1000
1000.979090296932
1000.920776855049
1000.066301128139
1000
1000
1000.356402024449
1000
1000
1000
1000
1000
1000
1000
1000
1000
1000
1000
1000
1000
1000
1000
1000
1000
1000
1000
1000
1000
1000.731903779936
996.7177156905499
997.4759376305703
1000.638090416234
1001.610881643736
1001.610881449098
1009.352364532882
1000.450677283531
1006.123521846169
999.2395261065266
1002.892955896161
1000
1000.450677130511
1001.693174075329
1000
1000.75995458793
995.3777303066285
1000
998.578424821605
997.9528889975425
1000
1000.595522303314
1002.892955699581
1000
998.6393630560807
998.5119675358047
998.5119677380575
997.2563509083957
999.596644591533
999.5966429904528
997.7809144514981
996.4640633287427
999.304045544554
999.0575392055038
999.0575387163191
999.322809611726
998.6928941579671
999.8556368996233
1001.251617686309
1001.251617461462
999.8556355674577
1001.097921775041
999.5889879148945
999.0205821219126
999.0205821062088
1007.908421467298
992.9897968539175
1001.229784457508
1001.336404683313
1001.336402526251
999.5904187060323
1001.285581927068
1001.285582471219
997.7055335903373
997.7055331034087
1000.462612216266
1001.132851948634
1001.132851891846
1001.495167672516
997.92679683313
1001.121610458221
1011.161880286904
997.9668665700394
998.0716313386782
999.9632161671128
999.9632153605858
1001.258430982835
999.0681267098528
999.0681269484049
999.2281888636007
1002.673106403417
1005.452305961681
997.758955222674
997.7589553686944
999.2281894052157
997.1944350354833
1003.260039069933
1000.032343892688
1014.541375636897
1013.604617133595
998.6393635200014
1001.093674531998
997.931596237053
997.9315967694439
997.4759380328659
999.5889881494574
998.3174502669725
1000.903557663417
999.5889880111957
1006.302250648917
1006.302250489866
998.5092473151609
998.5092480135179
1000
1000.47026853749
1000
999.6120798251379
1001.188075984376
998.6902309433955
998.6902310951336
1003.196319463524
999.6120798651667
1003.196319003462
999.6120796741493
998.1591552941055
999.0508640664182
1000
999.0508644101876
1000
1001.219465166783
997.1691377566008
998.1591546049494
1001.21946520427
997.5807863152085
1000
994.8356065493006
997.5807873545923
1002.110880163403
1001.969629236977
1013.604617199335
1001.969628271041
998.9305634162434
1000.470268912072
978.344685607217
998.3062381694685
997.1691378071949
1000
1000.218748602262
994.8356063813047
1003.260038335614
994.8183325535696
1005.452305544889
1000.470269073911
1000.399780259864
1000.45371180597
1000
1004.337890498958
1000.399779952118
985.7928955036623
1002.518950243585
1000
1002.518950817082
1000.577984953907
993.9241992986333
1002.83247222116
1000.73588243886
1001.905265961662
993.9935824187854
1001.693173743204
1007.30382772984
1008.564279809847
999.6145532546714
1002.308712132781
1005.050657127505
1000
999.7301471727776
999.8062524629918
1001.442985117435
1001.309300898957
996.4640627170211
1002.938361079591
1000
1000
1000.195807161441
1000.122158879054
1000
1000
996.3653524056605
1002.369708022887
998.1591543072238
998.5092471957528
998.5092479419673
1006.302250818299
1006.302250692987
998.1591550086778
983.3701465755921
997.9315966989636
997.9315960351329
1000.735882370254
1001.336405153456
1001.336403522865
999.6120798325752
1014.541374751031
1002.758672977649
999.9632157923645
1002.303820045085
997.7589544933867
997.758954110147
999.068126774523
999.0681272382145
1000.835027680843
999.9632163700192
1001.908205271638
1001.132851899235
1001.132851558892
997.1944352775083
992.9897970728548
1003.712398557041
999.5904189205967
1011.161880061364
999.0205817878383
1001.183116684516
1013.604616601949
1013.604616448822
999.0575382261944
999.0205819728426
999.0508635426914
999.0508638325003
1001.495167749056
985.7928962960932
1002.518951388085
1000.138626704256
992.8202431497311
999.3506806554664
1001.969629280191
982.0292527940039
1002.518950995591
1001.285582950901
1001.285582283156
997.256350778028
1001.251617512743
1001.251617861382
999.5966436806522
999.5966448396886
999.3228097663773
998.5977153113583
998.4111022244297
998.5977151533518
1000.638090361636
996.7177159930095
1000.731904372822
992.8202429717022
1000
1000.058990698515
1000
1000
1000
1000
1000
1000
1000
1000
1000
1000
1000
1000
1000
1000
1000
1000
1000
1000
1000
1000
1000
1000.356401970794
1000
1000
1000
1000
1000
1000
1000.979090649185
1000.920776964151
1000
1000
1000
1006.123521409583
1003.129664733595
1000.91867115026
1000.83514640242
1009.352364979606
1014.463287714329
1000.092906873012
1000.663233960145
1000.178516709037
1006.123522147075
1003.129664218844
1000.918671105707
1000.835146479423
1000.211195466678
1000
1000
1000.979090273471
1000.920776932567
1000.369019558683
1000
1000
1000.356401908135
1000
1000
1001.188076382224
1000
1000
1000
1000
999.5889877319847
1000
1000
1000
1000
998.6902309358861
1000
1000
1000
1000
997.6264690196226
1003.196319220179
1003.196318716519
1000.663233971775
1000.092906734938
1014.463287684113
1009.352364651136
1023.062870521525
1015.362888488455
1008.564279117737
1001.610881620075
1001.610881748721
998.4200095356407
997.7055335958148
1001.097921703593
999.0575387623634
999.85563665046
999.8556358861088
997.7809148288915
997.7055335933446
1006.873315229568
1001.994433141002
998.0822700070242
998.082269932324
978.344686249849
997.3705017883389
997.3705011765179
1000.455595776352
998.690231027731
1002.04313516174
993.9241995487279
1008.564454920126
1002.390364216363
1007.908421032552
994.8356072720456
994.8356074597137
999.8865430631197
999.8865437958774
1004.010569259135
1002.26788722876
1000.453710247411
994.8183331502496
997.169137329989
997.1691374328146
992.5228730744483
1001.183116789443
1000.2658772768
1001.00166376598
1004.337891008995
1003.260038320035
1001.309301242956
1001.219466266507
1001.219466469267
997.5807872049129
997.5807866695
1000.399780594803
1004.337892020019
1005.452306314878
1003.260039165506
1000.470268356555
1000.435882014626
1001.969628575286
1005.452306000442
1000.135307441688
1002.369708026564
1002.303820509763
1000.675204985663
998.071630963864
1001.258431462197
996.3552436296949
996.3552438719946
1003.712397733858
998.4200081572204
1002.758672643083
1000.455594935279
1001.994433689785
1000
999.3506804171957
997.4363012620886
999.3040452188641
1015.362888696712
1023.062870830474
1000
1000
1000
1000
1000
1000
992.5228717255923
994.8183326329628
1004.010574605611
1007.908421344933
997.6264685669083
997.4759377840106
1008.56445153018
1001.267628191023
999.6130362573221
1001.31619037787
1002.132637321503
997.6757491793571
1001.188075579987
999.8554185575636
1000.577984908197
1000.462612294132
1000.435881804707
997.9668665407995
998.0716316501566
997.5621001826355
1001.258430924744
1001.994433164141
1000.455595499239
1002.390364427402
999.350681424254
1000
1000
1000
1000
1000
995.3777305543458
1000
1008.564279084883
1007.908421197131
997.9565037591263
1002.267887273853
998.5784247514948
1000.135307429748
999.806252146052
1001.908205302531
1000.004545072701
1000.19580710051
1000.138626375272
1003.712398951902
1015.362888376806
1023.062870029474
1000
1000
1000
1000
1000
1000
1000
1000
1000
1000
1000
1000.058990760636
1002.758673301589
998.6928936780456
1001.597688034832
998.4200092372714
992.9897971624912
1000.835027588478
1002.303820287418
1002.043134565152
1004.010567360381
983.3701465350518
997.5621006239124
1002.369707839062
997.9528891178956
1000
1008.564455808114
999.3040452918966
1006.873315086543
992.5228739569678
994.8183330283271
993.9241997686397
1003.261912953741
1003.26191254879
1001.267628272678
995.8653252643669
997.6757490381005
999.6130358997165
997.4363015041757
1001.316190329032
1002.132637124782
1004.274524130064
1000.595522379133
1000.03234372254
1001.188076700843
999.8554186319045
1001.943615696544
1000
1000
1000
1000
1000
1000
1000
1000
1000
1000
1000
1000
1000
1000
1000
1000
1000
1000
1000
1000
1000
1000
1000
1000
1000
1000
1000
1000
1000
1000
1000
997.5621010983256
998.3174506084847
1001.597688082512
1000.004544948853
1000.004545254071
1000.399780532994
1000.218748644474
999.0765890638995
999.0765892749309
998.1193661649318
998.026044081995
1000.032344019805
1000.032343623999
1001.121610514843
1001.479755952801
992.989797136418
1001.316190152958
999.3040453496789
999.30404529509
998.0426242693211
998.5784246816474
996.4640628165646
1002.832471925404
1000.735882546754
996.4640632004458
1000.066301358045
999.6130359902194
1000.577984746917
991.8356227132562
1008.566390379755
1000.066301025947
999.614552874936
1001.316190353161
1001.908204705656
997.6757491330455
1002.308711874644
1000.462612090551
997.4363011560911
997.6757489226452
1000
1000
1001.943615248657
1001.442984882892
999.855418575206
1000.12215858349
993.9241994456962
1000
1000.835027663826
993.9935820891779
1002.537243727691
1003.261913084258
997.9668668291287
1000.595522358068
1000.595522684447
997.956503210685
1000
999.8062525639015
1000
1000.135306980075
1000
995.8066323996507
1000
1000.435881448337
1000
1000
1001.597688356949
998.0426241480674
991.8356222996339
1000
1000
998.3536357226085
1000
1001.442985201708
999.6130356975527
1001.597687644608
1002.938360310057
993.9935827111185
1001.905266007724
1007.157131800839
993.9241992946414
1002.267887014056
1003.26191306436
1002.390364748972
1008.56639089522
998.5119679129322
999.7301473164555
1000.13862687106
1000
998.5119680443402
996.3653529446431
998.6393634239888
1006.873317405656
997.4363013213627
998.353634378419
1000
1000
998.6393632996085
1002.892955731099
999.6145530020426
1002.892955543119
983.3701464987229
1000
1000
1000
995.3777295840601
1000
1000
1005.050656591736
1008.564279712443
1000
1000
1000
1000
1000
1000
997.9668666510577
1007.303827080605
998.6928939772039
1001.693173897538
1000
1000
1000
1000
1000
1005.050656987364
1007.303827554998
1002.308712071764
1001.267628076422
1001.26762808569
1002.267886874172
1004.274524191036
995.8653242085165
1000.122159120132
999.7301471427577
995.8653253029423
996.3653527862798
997.9528894122443
998.5784248108002
992.9897969386797
1000.195807244087
1002.832472262309
1002.938360923506
1000.138626719594
1001.905265829068
1002.132637073592
1002.537243491408
1002.132637189016
1000.577985022547
1000.058990695232
1000
1000
1000
1000
1000
1000
1000
1000
1000
1000
1000
1000
1000
1000
1000
1000
1000
1000
1000
1000
1000
1000
1000
1000
1000
1000
1001.527513213689
1000
1000
1000
1000
997.4759371814963
1000
1000
1000
1000
1000
1000
1000
1000
1000
1000
1000
1000
1000
1000
1000
1000
1000
1000
1000
1000
1000
1000
1000
1000
1000
1000
1000
1000
1000
1000.078425310664
1000
1002.673106488356
998.3062379084992
1000
1001.229784226924
1000.450676852741
999.2395259451608
1000.759954359764
1000.90355791509
1000
1000.450676895966
1000
999.2395257037207
1000
1000
1002.043135296617
999.6836138133488
999.7789211002794
999.7789213169914
1001.694455968257
1000.128293422227
1000
1000.289782698542
1002.11088014602
1000.462612469566
1000.851693195992
1001.093674433954
1000.051999332941
1000
1000
1000
1000
1000.166761679647
1000
1000
1000
1000.051999332843
1000
1028.443613277524
1035.541305657468
1000.000000603784
1000.170420880641
1000
1017.143804528843
1000.114227034757
1000
1000.114227034305
1000
1001.242999352262
1036.546443216485
1000.134882543309
1031.156591821426
1036.546443236509
1000
1038.846774763528
1028.443613278725
1000
1031.156591920482
1000
1017.143804454311
1000
1000
1000.166761679234
1038.272030342625
1000.000000603784
1000
1000
1000.134882543322
1000
1000.170420880239
1000
1031.156591761917
1001.242999357441
1000
1028.443613244096
1035.541305600051
1000.109934696343
1000
1000
1000
1028.443613223569
1038.84677474945
1000.134882543355
1000
1000
1000.000000603784
1000
1000.109934695829
1000.000000603784
1038.272030337618
1000.148754093435
1000.051999333031
1000
1000
1000.166761679564
1000
1035.541305591378
1000
1031.156591848871
1017.143804524077
1000
1036.546443229226
1017.143804592233
1000
1000
1000
1000
1000
1001.242999356397
1000.170420880506
1000
1000
1000.051999332948
1000.109934695346
1001.242999352659
1000.148754092669
1000
1000.114227035067
1000
1000
1000.114227034512
1035.541305626827
1038.272030393322
1000.109934695151
1000
1000.170420880295
1000.134882543158
1036.546443207887
1000
1000
1000
1000
1000
1000
1000
1000
1000
1000
1000
1000
1000
1000
1000
1000
1000
1000
1000
1000
1000
1000
1000
1000
1000
1000
1000
1000
1000
1000
1000
1000
1000
1000
1000
1000
1004.274524178745
1000
1001.267628280792
1003.26191307287
1007.157132553754
998.5119678297527
998.5119678904368
998.6393633309076
1000.595522644132
998.6393633763989
1002.892955881307
1002.892955811943
998.6928938038897
1001.267628073897
1007.303827219745
1005.050656948107
1000
1000
1000
1000
1000
1000
1000
1007.303827109796
1005.05065687044
1000
1000
1000
1001.267628241247
1001.316190427575
999.6130359376833
1000
1002.267886963898
1000.135307260872
1001.908205127438
992.9897970949157
1000.138626600756
997.4363014654705
997.6757489435303
998.578424793301
1003.261912857713
1001.59768765554
1001.693174004746
1000.195807313851
997.9668663435035
999.8062524229249
995.8653247156835
993.9241996957926
1000.577984876183
997.9565034083188
999.3040450096091
997.4363012845629
1000
1000
1000
1000
1008.564279248236
1000
1000
1000
996.4640625425958
1000.735883020337
993.9935821416485
1002.30871156968
1000
1000
1000
1000
1000.066300660712
999.6145525892315
1000.735883017993
1001.905266235125
1002.938360764388
998.0426241966481
998.04262422532
1002.308711506642
1002.537244161656
998.3536344029804
1008.566390530074
996.3653529737938
1007.157131653837
1000.122158680975
1008.56639050302
1002.390364712075
1006.873315662633
996.3653529465467
999.7301471702774
983.3701462651227
1002.832472225327
1002.832472048084
995.8066324335183
997.9528893820285
991.8356225911893
995.3777305808894
1000.066301135102
1000.122159141382
999.6145525151537
1001.442985123349
991.8356230895298
998.3536351653865
995.8066341556696
1001.905266157471
993.9935824715325
1002.938360978104
999.7301470082709
1001.442984936207
997.6757492566747
1002.132637097047
1002.132637226732
1002.986295644777
1001.316190116096
1001.316190469472
1002.986295343074
1002.986295595113
999.6130360401747
999.6130361227433
997.6757489444952
1002.986295583283
997.4363012663824
1000
996.4640625873478
1002.537243975985
1000
997.4363014023861
1004.274524077571
1003.261912787858
1003.261913248521
1002.986295590551
1002.986295404087
1002.986295507713
1002.986295334039
1001.69317406267
997.6757490911159
999.6130358876034
1001.31619016536