<VTKFile type="PolyData" version="1.0" byte_order="LittleEndian" header_type="UInt64">
  <PolyData>
    <Piece NumberOfPoints="3431" NumberOfVerts="3431">
      <Points>
        <DataArray type="Float64" Name="Points" NumberOfComponents="3" format="ascii">
0.1433656771989625 0.152066170157589 0.05987362060223981
0.152066170157104 0.1433656772012669 0.05987362060624594
0.1349000395872725 0.1522529206337064 0.0503605066467073
0.1522529206378558 0.1349000395852872 0.05036050664242214
0.1262481939810754 0.1521771851160787 0.04339740861871318
0.1521771851121919 0.1262481939785739 0.04339740862047244
0.1162941592754907 0.1526567448882305 0.03903372691278159
0.08922366023561688 0.1151933194720381 0.04682350467425845
0.1071225596746768 0.153445148477932 0.03522803694807916
0.1305842984077386 0.1228174965226916 0.01706388803450371
0.1142348072069343 0.1058085304384129 0.06776205546355218
0.09846671040541534 0.1531110629458947 0.0330647920996639
0.08964455371363224 0.152013914788111 0.03054761688305179
0.1204540532077954 0.129276619263006 0.008024150451917822
0.1147154495874138 0.1327212863309352 0.03824884183480679
0.1315813630449299 0.1419063065538552 0.02685360328923645
0.1419063065704268 0.1315813630568921 0.02685360329750857
0.1269704451939075 0.1427220434485674 0.0200940421860369
0.1058085304384518 0.1142348072068709 0.06776205546356301
0.1149405741694919 0.145871015387918 0.01746710245368486
0.1445683645382 0.1256657108633243 0.03493960980388718
0.1256657108637991 0.1445683645369968 0.03493960979809196
0.09583537257851366 0.1417831826994511 0.01233141833668275
0.1469037627445363 0.1469037627360479 0.03265629630378303
0.1260352025477541 0.1379958387280769 0.005181971118013626
0.1379958386528315 0.1260352025365317 0.00518197113621485
0.08937770834984973 0.1066935263905932 0.04325032413743876
0.105449414862512 0.1409191093066284 0.01144738111333948
0.09736021523719564 0.1149100927112571 0.06650986796323345
0.08062229164811845 0.1066935263898905 0.04325032413970451
0.08946169591743845 0.1400912650092125 0.007319416350105057
0.1060771429091329 0.1060771429095227 0.0649742524140966
0.1074105735566223 0.1437825359287282 0.05150113692844191
0.1107424909552378 0.1203661221971791 0.004229069972980326
0.09723843821631063 0.1062667653477442 0.06331911993794143
0.0716686339436283 0.143867268224171 0.05051987276748293
0.09833136605519177 0.1438672682251265 0.0505198727662259
0.1067437488774355 0.1328140180462106 0.03530809340839838
0.1241240910014022 0.1058482674944745 0.06795540578295318
0.1231577991616131 0.1134209024936512 0.06870262806178554
0.08949619709673147 0.1437844516627855 0.04960088375353424
0.08050380290284838 0.143784451665678 0.04960088375377708
0.1326235724918736 0.1149687114466242 0.07292246735787601
0.1414242390440851 0.1257082059897317 0.02734252064961772
0.09793704913599753 0.132753651086901 0.03376819112846888
0.07206295085954635 0.1327536510857305 0.03376819112874727
0.08935383567676533 0.132618484501027 0.0329813123804823
0.1329665782497399 0.1062337242422998 0.07052489561299768
0.08064616432140038 0.1326184845023192 0.0329813123780747
0.08944937551610019 0.1147125151810464 0.0378851289404351
0.1218703260223201 0.1218703260288551 0.006079331410949924
0.09006516676709037 0.1070326313427559 0.03399505850390482
0.1138444550226487 0.1138444550225468 0.06142288050850942
0.129276619229976 0.1204540531749761 0.008024150504923239
0.1141055885712751 0.106013610774229 0.0588307365024054
0.1060136107744834 0.1141055885717272 0.05883073650185763
0.09687193123750475 0.1145620600134761 0.05760244252799608
0.1274742549583729 0.1274742550757718 0.001089984271402556
0.1535874826209365 0.1267448927661429 0.03287879514650551
0.106370803219334 0.1063708032198861 0.05589348449725324
0.09664575495673179 0.1065271706312674 0.0540773980754729
0.1350651735778441 0.1524011799558227 0.05881425902708842
0.1524011799555808 0.1350651735786778 0.05881425903178753
0.1260830527094849 0.1523449439335421 0.05271046988241318
0.1523449439380689 0.1260830527117829 0.05271046987396682
0.1169321391717855 0.1523205825789907 0.04845790987401055
0.1073483840072466 0.1523500043731332 0.04536956082544171
0.1429562478494461 0.1158637151087846 0.07869752873367461
0.09839340110970565 0.151944597088934 0.04351289891121392
0.08957823940790029 0.1510649880331476 0.04130649283094251
0.1236771234597515 0.1140178732485845 0.05987279747409385
0.1243085450089686 0.1061846093900761 0.05749108248703279
0.08055062448387536 0.1147125151783148 0.0378851289438314
0.1327617392498517 0.1147864533020621 0.06427355720912885
0.1331272429346154 0.1066560349347118 0.06214554607637513
0.08894610776581194 0.1140411472443572 0.02716837688604468
0.1141347938621922 0.114134793863355 0.05201578451415698
0.07993483323151271 0.1070326313396727 0.03399505850531392
0.08962639543897263 0.1065236091820632 0.0230685016244652
0.1120857504233265 0.123188610137841 0.02401610182985389
0.1427220434887382 0.1269704452141976 0.02009404223378855
0.1138547525994036 0.11385475259892 0.07019846432445642
0.1233811521393986 0.1233811521383148 0.04882801259603439
0.1242110426486171 0.09743376798592621 0.0741608584329369
0.1244031926754997 0.08918333677832838 0.07424088242965314
0.1062392687128463 0.1240857406764882 0.0213935771605371
0.1145845204931507 0.1060423153937313 0.04870903932417982
0.1060423153932691 0.1145845204961063 0.04870903932403513
0.1448267290715594 0.1319735546301053 0.01260241347181271
0.1456762840736335 0.1456762838278092 0.01636657332516349
0.09744766927192494 0.1150410135664578 0.04745012588651985
0.09648184320995792 0.1243342152865807 0.01932472091371374
0.08054871955390477 0.1244660019883065 0.01844913021251465
0.1529254376700377 0.1412473251329298 0.02316588309304178
0.1160875448994667 0.1399290337512399 0.003661061699303848
0.1203125049236286 0.1412423825385797 0.007813128514481772
0.1319735545798573 0.1448267290481853 0.01260241334175531
0.141247325139001 0.1529254376893275 0.0231658830928368
0.1520792556335936 0.1520792556326513 0.04701604804997243
0.0894512804442143 0.1244660019883521 0.01844913021390733
0.1524425168484146 0.1524425168570527 0.03767746089736128
0.1402157212288317 0.1481517577382171 0.01531270423292982
0.1064360553195883 0.1064360553210006 0.04539822036118633
0.09698495348114383 0.1066087931557232 0.04389417639069522
0.1481517576467472 0.1402157213806941 0.0153127041808267
0.1172228556197487 0.1524888876985148 0.06518290220857638
0.1151933194706602 0.08922366023659227 0.0468235046763744
0.0894452287662829 0.0894452287664383 0.06078404807549487
0.1151045314187866 0.08903001303935092 0.06617024924278238
0.1135713599123504 0.1316153957111837 0.03005052565492587
0.1247656445423555 0.08958347521116329 0.06655735883945313
0.09715486198925094 0.08976077671146065 0.05209482760943222
0.1065862545514849 0.08923579291403108 0.06305679982773428
0.1058467066217081 0.1313730380752796 0.02685268561713253
0.142900537714103 0.08954678203071099 0.08298406145234455
0.1431675908633824 0.08970572685619359 0.07494306517509047
0.1160216334927787 0.1437194564172546 0.04614147401817026
0.124733413531387 0.0893424425812592 0.0554117411581286
0.1144685559690637 0.08939881585278929 0.05710977165244759
0.09753198789355381 0.1317681942008611 0.02504901310181725
0.0724680121096808 0.1317681941978744 0.02504901310505133
0.08951842105263157 0.1618131578947369 0.1042884615384616
0.09855526315789473 0.1618131578947369 0.1042884615384616
0.09792652408831155 0.08927738527884432 0.06107698847066648
0.08960946743186303 0.08960946743186966 0.05124488446439187
0.1069535549329724 0.08966752097924997 0.05389457974131274
0.08092790147940532 0.1319924707947173 0.02385564786477568
0.0890720985181679 0.1319924707975716 0.02385564786429632
0.1331350456969781 0.08938827931587784 0.06912014952786366
0.1333756825307462 0.0893367193053702 0.06061536475628623
0.0971348658277558 0.09713486582659486 0.04198726696548278
0.08951842105263157 0.1618131578947369 0.007911538461538463
0.09855526315789473 0.1618131578947369 0.007911538461538463
0.1075921052631579 0.1618131578947369 0.007911538461538463
0.116628947368421 0.1618131578947369 0.007911538461538463
0.1256657894736842 0.1618131578947369 0.007911538461538463
0.1347026315789474 0.1618131578947369 0.007911538461538463
0.1437394736842105 0.1618131578947369 0.007911538461538463
0.1066935263894789 0.0893777083501231 0.04325032413858954
0.1527763157894737 0.1618131578947369 0.007911538461538463
0.09734021959098452 0.08935260035030469 0.04107477537057726
0.08935260034979374 0.09734021959087527 0.04107477537081151
0.131871160917691 0.1232447132840934 0.05151062282562179
0.1232447132831072 0.131871160917165 0.05151062282595285
0.1076832267617221 0.1523728342311955 0.06249735405238091
0.0895157373937837 0.08951573739355649 0.04049024167332246
0.1234841794601228 0.1136075194592565 0.05125778165626847
0.1243265249282844 0.1061356270017631 0.04952950199414682
0.1251738033149314 0.08959804497285158 0.04772894099510226
0.1247552377570741 0.0970891309774945 0.04770552928982798
0.1522754932657607 0.09873257439765487 0.08716166752722643
0.1075720266576072 0.1435490770069862 0.04351074367877008
0.1520394301631988 0.0894991314893821 0.08634710539156665
0.1431925819344828 0.1159926200876989 0.07039654328643342
0.07183679199657696 0.1440047076369665 0.04268362314805661
0.09816320800533727 0.1440047076389535 0.04268362314773122
0.08944874080427968 0.1436308364090811 0.04160300799340503
0.0805512591935397 0.143630836414707 0.04160300799691281
0.09854570842150981 0.1521345701150105 0.06111700926971
0.07145429157355164 0.1521345701160742 0.06111700926817448
0.1329802275189304 0.1150054776387515 0.05563503709747317
0.1136184165246428 0.1136184165254842 0.04316121989611157
0.1334429734724888 0.1065047352739477 0.05342210311731681
0.1433442679351814 0.1075275870152992 0.06808889753814941
0.1334568129547837 0.08940992616962801 0.05162033978303444
0.1334144198970534 0.09801788068650408 0.05195875441083352
0.14361230960605 0.09846610601571772 0.06724413025805007
[...]
      <PointData>
        <DataArray type="UInt64" Name="type" format="ascii">
1
1
1
1
1
1
1
1
1
1
1
1
1
1
1
1
1
1
1
1
1
1
1
1
1
1
1
1
1
1
1
1
1
1
1
1
1
1
1
1
1
1
1
1
1
1
1
1
1
1
1
1
1
1
1
1
1
1
1
1
1
1
1
1
1
1
1
1
1
1
1
1
1
1
1
1
1
1
1
1
1
1
1
1
1
1
1
1
1
1
1
1
1
1
1
1
1
1
1
1
1
1
1
1
1
1
1
1
1
1
1
1
1
1
1
1
1
1
1
1
1
0
0
1
1
1
1
1
1
1
1
0
0
0
0
0
0
0
1
0
1
1
1
1
1
1
1
1
1
1
1
1
1
1
1
1
1
1
1
1
1
1
1
1
1
1
1
1
1
1
1
1
1
1
1
1
1
1
1
1
1
1
1
1
1
1
1
1
1
1
1
1
1
1
1
1
1
1
1
1
1
1
1
1
0
0
0
0
0
0
1
1
1
0
0
0
0
0
0
1
1
1
0
0
0
0
0
1
1
1
1
0
0
0
0
0
1
1
1
1
0
0
0
0
0
1
1
1
1
0
0
0
0
0
1
1
1
1
1
0
1
0
0
0
1
1
1
1
0
0
0
0
1
1
0
0
0
0
1
1
1
0
0
0
0
0
0
0
0
0
0
1
1
1
1
1
1
1
1
1
1
1
1
1
1
1
1
1
0
0
0
0
0
0
0
0
0
0
0
0
0
0
0
0
0
0
0
0
0
0
0
0
0
0
0
0
0
0
0
0
0
0
0
0
0
0
0
0
0
0
0
0
0
0
0
0
0
0
1
0
0
1
1
1
1
1
1
1
1
1
1
1
1
1
1
1
1
1
1
1
1
1
1
1
1
1
1
1
1
1
1
1
1
1
1
1
1
1
1
1
1
1
1
1
1
1
1
1
1
1
1
1
1
1
1
1
1
1
1
1
1
1
1
1
1
1
1
1
1
1
1
1
1
1
1
1
1
1
1
1
1
1
1
1
1
1
1
1
0
1
0
1
0
0
0
1
1
1
0
0
0
0
0
0
0
1
1
1
1
1
1
1
1
1
1
1
1
1
1
1
1
1
1
1
1
1
1
1
1
1
1
1
1
1
1
1
1
1
1
1
1
1
1
1
1
1
1
1
1
1
1
1
1
1
1
1
1
1
1
1
1
1
1
1
1
1
1
1
1
1
1
1
1
1
1
1
1
1
1
1
1
1
1
1
1
1
1
1
1
1
1
1
1
1
1
1
1
1
1
1
1
1
1
1
1
1
0
0
1
0
0
0
0
0
0
0
0
0
0
0
0
0
0
0
0
0
0
0
0
0
0
0
0
0
0
0
0
0
0
0
0
1
0
0
0
1
1
1
1
1
1
1
1
1
1
1
1
1
0
0
1
0
0
1
1
1
1
1
1
1
1
1
1
0
0
1
1
1
1
0
0
1
1
1
1
0
0
1
1
1
1
1
1
0
1
1
1
1
1
1
1
1
1
1
1
1
1
1
1
1
1
1
1
1
1
1
1
1
1
1
1
1
1
1
1
1
0
1
1
1
1
1
1
1
1
1
1
1
1
1
1
1
0
1
1
1
1
1
1
1
1
1
1
1
1
1
0
1
1
1
1
1
1
1
1
1
1
1
1
1
1
1
1
1
1
1
1
1
1
1
1
1
1
1
1
1
1
1
1
1
1
1
1
1
1
1
1
1
1
1
1
1
1
1
1
1
1
1
1
1
1
1
1
1
1
1
1
1
1
1
1
1
1
1
1
1
1
1
1
1
1
1
1
1
1
1
1
1
1
1
1
1
1
1
1
1
1
1
1
1
1
1
1
1
1
1
1
1
1
1
1
1
1
1
1
1
1
1
1
1
1
1
1
1
1
1
1
1
1
1
1
1
1
1
1
1
1
1
1
1
1
1
1
1
1
1
1
1
1
1
1
1
1
1
1
1
1
1
1
1
1
1
1
1
1
1
1
1
1
1
1
1
1
1
1
1
1
1
1
1
1
1
1
1
1
1
1
1
1
1
1
1
1
1
1
1
1
1
1
1
1
1
1
1
1
1
1
1
1
1
1
1
1
0
0
0
0
0
0
0
1
1
1
1
1
1
1
1
1
1
1
1
1
1
1
1
1
1
1
1
1
1
1
1
1
0
0
0
0
0
0
0
1
1
1
1
1
1
1
1
1
1
1
1
1
1
1
1
1
1
1
1
1
1
1
1
1
1
1
1
1
1
1
1
1
1
1
1
1
1
1
1
1
1
1
1
1
1
1
1
1
1
1
1
1
1
1
1
1
1
1
1
1
1
1
1
1
1
1
1
1
1
1
1
1
1
1
1
1
1
1
1
1
1
1
1
1
1
1
1
1
1
1
1
1
1
1
1
1
1
1
1
1
1
1
1
1
1
1
1
1
1
1
1
1
1
1
1
1
1
1
1
1
1
1
1
1
1
1
1
1
1
1
1
1
1
1
1
1
1
1
1
1
1
1
1
1
1
1
1
1
1
1
1
1
1
1
1
1
1
1
1
1
1
1
1
1
1
1
1
1
1
1
1
1
1
1
1
1
1
1
1
1
0
0
0
0
0
0
0
0
0
0
0
0
1
0
0
0
0
0
0
0
0
0
0
0
0
0
0
0
0
0
0
0
0
0
0
0
0
0
1
1
0
0
0
0
0
0
0
1
1
1
1
1
1
1
1
1
0
0
0
0
0
0
0
1
0
0
0
0
0
0
0
1
0
0
0
0
0
0
0
0
0
0
0
0
0
0
1
0
0
0
0
0
0
0
1
0
0
0
0
0
0
0
0
0
0
0
0
0
0
1
0
0
0
0
0
0
0
1
1
1
1
0
0
0
0
1
1
1
1
0
0
0
0
1
1
1
1
1
1
1
1
1
1
1
1
1
1
1
1
1
1
1
1
1
1
1
1
1
1
1
1
1
0
0
0
0
0
0
0
1
1
1
1
1
1
1
1
1
1
1
1
1
1
1
1
1
1
1
1
1
1
1
1
1
1
1
1
1
1
1
1
1
1
1
1
1
1
1
1
1
1
1
1
1
1
1
1
1
1
1
1
1
1
1
1
1
1
1
1
1
1
1
1
1
1
1
1
1
1
1
1
1
1
1
1
1
1
1
1
1
1
1
1
1
1
1
1
1
1
1
1
1
1
1
1
1
1
1
1
1
1
1
1
1
1
1
1
1
1
1
1
1
1
1
1
1
1
1
1
1
1
1
1
1
1
0
0
0
0
0
0
0
0
0
1
0
0
0
0
0
1
1
0
0
0
0
0
1
1
0
0
0
0
0
1
0
0
0
0
0
0
0
0
0
1
1
1
1
1
1
1
1
1
1
1
1
1
1
1
1
1
1
1
1
1
1
1
1
1
1
1
1
1
1
1
1
1
1
1
1
1
1
1
1
1
1
1
1
1
1
1
1
1
1
1
1
0
0
0
0
0
0
1
1
1
1
1
1
1
1
1
1
1
1
1
1
1
1
1
1
1
1
1
1
1
1
1
0
0
0
0
0
0
0
0
0
0
0
0
1
1
1
1
1
1
1
1
1
1
1
1
1
1
1
1
1
1
1
1
1
1
1
1
1
1
1
1
1
1
1
1
1
1
1
1
1
1
1
1
1
1
1
1
1
1
1
0
0
0
0
0
0
0
1
1
1
1
1
1
1
1
1
1
1
1
1
1
1
1
1
1
1
1
1
1
1
1
1
1
1
1
1
1
1
1
1
1
1
1
1
1
1
1
1
1
1
1
1
1
1
1
1
1
1
1
1
1
1
1
1
1
1
1
1
1
1
1
1
1
1
1
1
1
1
1
1
1
1
1
1
1
1
1
1
1
1
1
1
1
1
1
1
1
1
1
1
1
1
1
1
1
1
1
1
1
1
1
1
1
1
1
1
1
1
1
1
1
1
1
1
1
1
1
1
1
1
1
1
1
1
1
1
1
1
1
1
1
1
1
1
1
1
1
1
1
1
1
1
1
1
1
1
1
1
1
1
1
1
1
1
1
1
1
0
0
0
0
0
0
0
0
0
0
0
1
1
1
1
1
1
1
1
1
1
1
1
1
1
1
1
1
1
1
1
1
1
1
1
1
1
1
1
1
1
1
1
1
0
1
1
1
1
1
1
1
1
1
1
1
1
1
1
1
1
1
1
1
1
1
1
1
1
0
0
0
0
1
0
0
1
0
1
1
1
1
1
1
1
1
1
1
1
1
1
1
0
1
1
1
1
1
1
1
0
1
1
1
1
1
1
0
1
1
1
1
1
1
1
1
1
0
0
0
0
0
0
0
0
1
1
1
0
0
0
0
1
1
1
1
1
1
1
1
1
1
1
1
1
1
1
1
1
1
1
1
1
1
1
1
1
1
1
1
1
1
1
1
0
0
0
0
0
0
0
0
1
1
0
0
0
0
0
0
0
0
0
0
0
0
0
0
0
0
0
0
0
0
0
0
0
0
0
0
0
0
0
0
0
0
0
0
0
0
0
0
0
1
1
1
1
1
1
1
1
1
1
1
1
1
1
1
1
1
1
1
1
1
1
1
1
1
1
1
1
1
1
1
1
1
1
1
1
1
1
1
1
1
1
1
1
1
1
1
1
1
1
1
1
1
1
1
1
1
1
1
1
1
1
1
1
1
1
1
1
1
1
1
1
1
1
1
1
1
1
1
1
1
1
1
1
1
1
1
1
1
1
1
1
1
1
1
1
1
1
1
1
1
1
1
1
1
1
1
1
1
1
1
1
1
1
1
1
1
1
1
1
1
1
1
1
1
1
1
1
1
1
1
1
1
1
1
1
1
1
1
1
1
1
1
1
1
1
1
1
1
1
1
1
1
1
1
1
1
1
1
1
1
1
1
1
1
1
1
1
1
1
1
1
1
1
1
1
1
1
1
1
1
1
1
1
1
1
1
1
1
1
1
1
1
1
1
1
1
1
1
1
0
0
0
0
0
0
0
0
0
1
1
1
1
1
1
1
1
1
1
1
1
1
1
1
1
1
1
1
1
1
1
0
1
1
0
0
1
1
1
1
1
1
1
1
1
1
1
1
1
1
1
1
1
1
1
1
1
1
1
1
1
1
1
1
1
1
1
1
1
1
1
1
1
1
1
1
1
1
1
1
1
1
1
1
1
1
1
1
1
1
1
1
1
1
1
1
1
1
1
1
1
1
1
1
1
1
1
1
1
1
1
1
1
1
1
1
1
1
1
1
1
1
1
1
1
1
1
1
1
1
1
1
1
1
1
1
1
1
1
1
1
1
1
1
1
1
1
1
1
1
1
1
1
1
1
1
1
1
1
1
1
1
1
1
1
1
1
1
1
1
1
1
1
1
1
1
1
1
1
1
1
1
1
1
1
1
1
1
1
1
1
1
1
1
1
1
1
1
1
1
1
1
1
1
1
1
1
1
1
1
1
1
1
1
1
1
1
1
1
1
1
1
1
1
1
1
1
1
1
1
1
1
1
1
1
1
1
1
1
1
1
1
1
1
1
1
1
1
1
1
1
1
1
1
1
1
1
1
1
1
1
1
1
1
1
1
1
1
1
1
1
1
1
1
1
1
1
1
1
1
1
1
1
1
1
1
1
1
1
1
1
1
1
1
1
1
1
1
1
1
1
1
1
1
1
1
1
1
1
1
1
1
1
1
1
1
1
1
1
1
1
1
1
1
1
1
1
1
1
1
1
1
1
1
1
1
1
1
1
1
1
1
1
1
1
1
1
1
1
1
1
1
1
1
1
1
1
1
0
0
1
1
0
0
0
1
1
1
1
1
1
1
1
1
1
1
1
1
1
1
0
1
1
1
0
1
1
1
1
1
1
1
1
0
0
0
0
0
0
0
0
0
0
0
0
0
0
0
0
1
1
1
1
1
1
1
1
1
1
1
1
1
1
1
1
1
1
1
1
1
1
1
1
1
0
0
1
0
0
0
0
0
0
1
1
1
1
1
1
1
1
1
1
1
1
1
1
1
1
1
1
1
1
1
1
1
1
1
1
1
1
1
1
1
1
1
1
1
1
1
1
1
1
1
1
1
1
1
1
1
1
1
1
1
1
1
1
1
1
1
1
0
0
0
0
1
1
1
0
1
1
1
1
1
1
1
1
1
1
1
1
1
1
1
1
1
1
1
1
1
1
1
1
1
1
1
1
1
1
1
1
1
1
1
1
1
1
1
1
1
1
1
1
1
1
1
1
1
1
1
1
1
1
1
1
1
1
1
1
1
1
1
1
1
1
1
1
1
1
1
1
1
1
1
1
1
1
1
1
1
1
1
1
1
1
1
1
1
1
1
1
1
1
1
1
1
1
1
1
1
1
1
1
1
1
1
1
1
1
1
1
1
1
1
1
1
0
0
0
0
0
0
1
0
0
1
1
1
0
1
0
0
0
0
0
0
0
0
0
0
0
0
1
1
1
1
1
1
1
1
1
1
1
1
1
1
1
1
1
1
1
1
1
1
1
1
1
1
1
1
1
1
1
1
1
1
1
1
1
1
1
1
1
1
1
1
1
1
1
1
1
1
1
1
1
1
1
1
1
1
1
1
1
1
1
1
1
1
1
1
1
1
1
1
1
1
1
1
1
1
1
1
1
1
1
1
1
1
1
1
1
1
1
1
1
1
1
1
1
1
1
1
1
1
1
1
1
1
1
1
1
1
1
1
1
1
1
1
1
1
1
1
1
1
1
0
0
0
0
0
0
1
1
1
1
1
1
1
1
1
1
1
1
1
1
1
1
1
1
1
1
1
1
1
1
1
1
1
1
1
1
1
1
1
1
1
1
1
1
1
1
1
1
1
1
0
0
1
0
0
0
0
1
1
1
0
0
0
0
0
1
0
0
0
0
0
0
0
0
0
0
0
0
0
0
0
0
0
0
0
0
0
0
0
0
0
1
1
0
1
1
0
0
0
0
1
1
1
1
0
1
1
0
1
1
1
1
0
1
1
1
1
0
1
0
1
1
0
0
0
0
0
1
1
1
1
1
1
0
1
1
1
1
1
1
1
1
0
1
1
1
0
1
1
1
1
1
1
0
1
0
0
0
0
1
1
1
0
0
0
0
0
0
0
0
0
1
1
1
1
1
1
1
1
1
1
1
1
0
1
1
1
1
1
1
1
1
1
1
1
1
0
0
0
0
0
0
0
0
0
0
0
0
0
0
0
0
0
0
0
0
0
1
0
0
0
0
0
0
0
0
0
0
0
0
0
0
1
1
0
1
0
1
1
1
0
1
1
1
1
1
1
1
1
1
1
1
1
1
1
1
1
1
0
0
1
1
1
1
1
1
1
1
1
1
1
1
1
1
0
1
1
1
1
1
0
1
1
1
1
1
1
1
1
1
1
0
1
1
1
1
1
1
1
1
1
1
1
1
1
1
1
1
1
1
1
1
1
1
1
1
0
1
1
0
1
1
1
1
0
0
1
1
1
1
1
1
1
1
0
0
0
1
1
1
0
1
1
0
1
0
0
1
1
0
0
0
1
1
0
1
1
0
0
1
0
0
0
1
0
0
0
0
0
0
0
0
1
1
0
1
1
1
0
1
1
1
1
1
1
1
1
1
1
0
1
1
0
1
0
1
1
1
1
1
1
1
1
1
1
1
1
1
1
1
1
1
1
1
1
1
1
1
1
0
0
0
0
0
0
0
0
0
0
0
0
0
0
0
0
0
0
0
0
0
0
0
0
0
0
0
0
0
0
0
0
0
0
0
0
0
0
        </DataArray>
        <DataArray type="Float64" Name="density" format="ascii">
1000.1153762381
1000.11537621011
999.3755079766487
999.3755078598753
998.1559709481603
998.1559709923176
996.4784320419946
999.6726433531931
995.3380554510345
1001.099429779351
999.7703725835015
996.0777366635776
1001.992824930168
993.2892330390398
995.9067783422379
1004.159286869878
1004.159286939671
1011.833966782991
999.7703725868348
977.6270260983631
1005.184689286467
1005.184689174294
1018.151369086078
1003.464715720444
995.1971666455116
995.1971678821642
1000.180326406108
998.9411278120726
999.2553094567601
1000.180326441497
991.4951998330637
1000.585056292688
1003.828779933344
999.9069232529444
1000.230688123678
1003.46283057222
1003.462830529849
995.9179402293247
1001.671280607109
1000.482671335021
1002.230499162103
1002.2304992063
1000.441138743975
1008.701919743729
992.6778728232824
992.6778728669304
995.8868702898186
1000.559478960958
995.8868702829279
999.5519812890321
993.7400773211414
1002.137570129891
1001.373338348558
993.2892335721773
1002.098080404878
1002.098080415005
999.9864409504308
1004.534484690055
998.5679854034576
1002.564545156113
1001.184762792666
999.7980850050639
999.7980849443471
999.8521572138574
999.8521570868003
999.5470469124164
1000.351908469272
1000.784165369948
998.0152160477868
998.7007053739037
1001.700048842654
1001.96613378188
999.5519812417557
999.2389096791234
999.251277996401
995.5722013111803
999.8060605989963
1002.137570123078
1003.66596590252
1003.805368896929
1011.833966674521
998.5376114316152
1000.204607832351
1001.266379962684
1002.115980810628
1007.156262929249
1001.625600150132
1001.625600168021
989.2649779599567
998.9570966281464
999.24662128567
1001.640323590329
1001.518043077056
1000.664419164573
997.263650638236
1005.390913305709
989.2649776656633
1000.664419393518
999.4888341405556
1001.51804306
999.5074057382852
1000.526701302314
1003.406613037286
1000.007807836411
1000.526701010369
999.1204634994249
999.6726433574146
996.5060077959464
1000.344381323043
991.1588221780731
1000.939586233318
999.9338509280783
1002.472750885449
996.4007822534347
1001.533417739459
998.9175111467774
1002.348318791615
998.580695688245
1000.518271225652
993.8183206214592
993.8183206155874
1000.030929839193
1000
1000.818574849849
998.2000631380846
1003.309828121363
995.6257973936131
995.6257973731061
998.6558996939681
998.1272433100188
998.7562005845584
1017.967921250305
1017.333220309004
1015.02038996631
1014.772560823864
1013.732111771842
1024.668614409919
1006.697822589018
1000.180326439302
1000
1000.9015694105
1000.901569394878
999.9713298537179
999.9713298214842
998.7146938160256
1004.308626157631
999.464634220576
1002.153055219437
1001.903476250466
1001.803955243546
1000.56428379495
1003.332726031462
1000.885248419799
999.6522006800855
1001.002708229774
1001.002708231484
1001.032278849482
1001.032278859738
999.1708565899636
999.1708566280605
998.5243662094848
995.9089749607164
1000.047489583142
998.8460793547268
1000.797400304297
1000.734851016141
999.2227809252726
1000.647639078957
998.9436589181349
998.9436589135209
997.5821009265236
997.5821008928579
999.779273423319
1000.647639092714
999.5519812610596
1003.052601431122
1002.514821849716
1002.514821851131
1002.137570133711
998.6717060235376
1000.483196904596
998.6717060225577
997.9722408705846
1000.042291356879
1003.473995870361
1004.575126849033
1002.012498912583
998.8944130944744
992.7161706400364
999.9926297267842
999.6903206094828
997.893734577106
997.0331859335424
995.5722012804442
997.0331859360372
995.5886760631098
993.8831609015257
993.8831609084384
995.5722012999106
1000.998672518524
1005.909848783669
1003.073978003888
1001.230168357186
1001.054981986501
1003.853893065601
1000
1000
1000
1000.231356425511
1000
1003.073978008119
1003.665965895464
998.5638636071725
1001.053872998159
1000.110679284065
1000.802428143078
1001.151399632057
1000.960790687517
1000.478118510337
1003.66596588872
1004.244867827679
1005.101543996501
1000
1000.352342982178
1001.515744435895
1002.015562161724
1001.654623690206
1000.271795689744
999.2698460321345
999.2698459921983
1000.972396614839
1000.680420860285
1000.129623922651
1000.198676382065
1000.608524166655
1000.8979082828
1000.881737186361
1000.972396624956
998.0992331982419
1002.260990703372
1004.958777561052
1000
1000.787965544762
1001.310102756226
1000.017785738641
1002.693609308188
1005.008716439105
1000.110587576937
998.8972104672881
1002.488777507002
1000.987356965255
1002.152399210787
1000
1000
1008.666882619686
994.9248419097955
1002.520268223073
1003.232693306678
1005.563585633106
1002.92046750282
1000.64763907761
1001.602782603102
1000
1000
1008.219899335878
1010.992597532905
1008.219899293127
1010.992597551699
1000.305134132394
1000
1000
1002.488777602584
994.1099235787198
999.4982062579688
1000
1000
1006.697822571594
1024.668614049999
999.4982062341685
999.4554854086641
1002.110261330812
1000
1000
1002.800671118925
1001.189927422794
1000
1000.580922278025
1004.587182320459
1000
1000
1001.602782657745
1000.09776154037
1000.097761572014
999.1708566235097
999.1204636012709
1001.623349167336
1001.623349143267
998.7146939144889
994.1757471645592
1001.917203352801
1002.331758713722
991.7245505435675
1013.74763196545
1004.168824479937
1004.753847858812
1001.83747403873
999.8617119265251
998.4216419764128
1002.665571364377
1001.126484715174
1000.771902719843
1000.520161771589
1000.741729524888
1000
1000
1002.152399163009
1001.474248298097
1001.085549452408
1001.518708588859
1000.033723220901
1000
1000.01778574653
1001.310102629045
1000.78796546516
1000.134572259478
1000.828821753723
1001.263559485793
1001.045523507397
1001.122323169536
1000.897908342164
1000.608524219012
1000.198676402519
1000.075850055098
1000
1000.033789094856
1001.260546583792
1001.864821227652
1001.654623693403
1002.015562187976
1001.51574444431
1000.202073117714
1000.125625957292
1000.002719024683
1000
1000.478118480212
1000.960790657136
1001.151399607358
1000.802428135532
1001.604180579596
1000.868212877709
1000.528449322995
1000.048475209124
1000
1000.231356410057
1000
1000
1000.469109785699
1001.316799598131
1001.068616723019
1000
1000
1001.771924657046
994.1757471765272
1001.917203371924
999.6144201854048
1000.097442242506
998.8816563773385
998.5679850805805
994.0299376626696
990.4542716104435
993.860685950714
1002.004727148265
1000.097442191229
1002.656725607349
1001.917203349113
998.6060061172481
999.2135724057284
998.8816565225477
998.6060051819094
991.7245505784215
999.9069232004114
1004.168824409205
1008.219899286013
1004.753847849606
1004.753847854441
1001.837474014885
1001.837474011187
999.8617119980928
998.4216420724709
1010.9925975269
1002.077934612506
1005.563585595869
1001.099429831819
999.2396250361745
994.8286865081526
981.0384840149924
996.98094521934
1002.325337609184
1005.400025952316
1000.317192667395
1000.317192745204
994.9248420069151
1001.815529279155
1000.885248414905
1000.930926170851
999.0158868239091
1000.145942401573
999.7602710419396
998.9437354849061
1001.239499590528
996.0083782395501
986.5949452983054
999.0158868797515
1020.460625224527
1000.145942516752
999.4554853276354
993.238952841606
984.3021227354748
1001.316983959961
1001.316983880165
1009.0459591708
996.5276875093448
998.7007053856292
1001.420803941899
1000.011329060643
991.495199915354
994.9507626645151
1008.841177994021
1000.011327901841
997.3063452650722
995.3745977631426
1008.272395665433
981.0384839699898
1004.574856231612
1001.209384320935
998.1437005215616
999.746662071967
995.0142453116945
1003.758086094356
993.5203425392991
998.1437006150626
991.5332047634873
1000.27096311259
999.7466616998865
1000.27096314692
984.3021227037574
1009.045959238891
996.5276873801943
1000.030929839634
1008.841177902025
1000
1001.992824899315
1000.469109782683
1001.604180585198
1000.202073120469
1008.666882618834
996.0777366069113
1005.008716476071
1000.075850059696
1000.134572272664
1001.47424828732
1002.665571353979
1002.800671118503
1003.853893080362
1017.967921247843
1002.004727116893
1008.701919617551
986.5949452788527
1008.27239563752
1001.992824918298
996.660616081361
996.660616152991
994.5930128569364
998.0926754479062
998.0926755062602
1013.982991223287
1001.032278871698
1001.002708242775
1003.332725974781
995.2847133249417
996.386355854225
996.3863557990305
998.7351788067101
1001.296019364856
1001.324012971951
998.7351788666246
1002.348318726506
1001.296019377462
999.2698460093194
1001.324012995186
1008.272395621571
1000.271795696428
1001.90458309371
1001.054981971782
995.5886760864621
999.2396250088728
998.0992332239986
1000.62461651436
995.6257973910194
993.8183206237039
996.400782218222
998.7734119276946
998.7734119266609
994.5979405593957
994.5979405628603
991.1588221259233
1000.045552424318
1000.045552408744
1004.256634720532
1004.256634732538
1002.385388348075
1002.385388325365
996.0612112764329
1001.640323588015
1001.518043104728
1007.156262909358
1002.230499189742
1003.462830552137
1003.805368897155
1003.828779914274
1002.947502950178
1013.747631956247
1011.988049554654
1006.463620162251
995.8868702903466
992.6778728994125
998.5243661561458
1001.90458315277
1000.047489567753
1001.915067422178
1001.325243355072
1001.230782566715
1001.230782573729
995.9179402551742
1001.296434334614
1001.296434333117
1000.661870116132
1000.661870120667
995.9067782900556
1005.570478653588
995.7318417063432
998.8944130523532
999.992629666105
994.7344735633336
995.7318417253795
994.734473578594
995.0142452033662
996.0083782075411
1001.239499580699
998.1414259033295
998.9437355409837
999.7602709988831
1001.11346168879
1002.32533754578
993.8606859046191
990.4542716618861
994.0299378860169
999.2135722590291
1003.75808656699
998.0992332724416
1000.998672435518
1000.881737128509
1001.081602873614
1001.08160288629
996.3769208246332
1002.110261294433
1017.3332202642
1015.020389921636
986.5949453148862
1014.772560834447
1013.732111622316
1001.053872954573
1000
1000.680420861133
1004.958777742969
1001.18992744942
1000
1000.580922260395
1004.587182615677
1001.126484726615
1000.771902807571
1000.520161792035
1000.741729590772
1001.085549410509
1001.518708600653
1000.033723200307
1000
1000.828821725267
1001.263559439968
1001.045523474371
1001.122323113845
1000
1000.033789089979
1001.260546575854
1001.864821202738
1000.125625959561
1000.002719025539
1000
1000.868212888874
1000.528449319392
1000.048475207003
1002.004727113345
1001.316799595887
1000
1000
1001.113461652792
999.3789654684317
1003.342824802825
1000.784165434969
993.5203424565427
1005.400026025721
995.3745977987933
1000.881080996583
999.2741999645081
999.2741999233501
1000.837437050414
996.9809446947586
1005.390912886257
1001.604180583098
1000.868212877226
997.2636504163855
1000.202073113604
1000.125625953967
998.941127530224
1018.151369069838
977.6270264479906
998.0152160021811
1001.266379942597
1000.351908339954
1002.115980803229
998.5623224872362
1000.223545196835
999.5470467946485
1000.075850055084
1000
1000.344381333593
998.5623224940534
1002.472750911921
999.3741371954246
1000.134572264418
1000.828821736436
996.0777366119655
995.338055407386
996.4784320887549
1000.961000235899
1001.474248284047
1001.08554940139
1000.939586207163
999.3741372264466
999.5764344193319
1000.518271203178
1002.198985780257
1000.438878996326
1002.66557135447
1003.309828102305
1003.309828130616
999.2466212645654
1000.007807859768
999.1080239223996
999.5764344291422
998.6558996919522
999.5649730663404
999.5649731519159
998.6558996846539
1004.69860637219
995.7318417157788
1000.438879002884
998.5806956603894
998.5806956893533
999.9338509179829
1011.988049532248
1006.463620234569
999.6726433610689
1002.003099676087
1001.296434331158
998.5093359752289
999.03496790084
1000.818574857787
1000.455341947513
999.2553094481162
1000.230688094603
999.108023938783
998.1272433021641
998.1272433071931
1002.888495832651
1002.888495837406
1002.800671117078
1001.803955294047
1001.9034762862
1001.903476258859
1002.947502947849
1000.961000261576
999.986440966586
1001.184762809935
999.8920326604704
1000.798809223041
1002.003099619228
1013.747631925505
1011.988049554618
1001.533417726214
1002.19898576305
1000.734851024397
1003.853893081292
999.0256185233959
1000.797400306591
1000.797400309878
1002.012498901615
1004.575126899575
1004.575126851345
999.9338509240415
999.2396249786771
1000.901569441793
998.671706051994
1000.972396619779
999.8920326863245
998.9175111580887
1017.96792125944
997.2624763619356
997.2624763791591
1002.025428761549
1003.765296362951
1010.471184834966
999.0685384656763
998.9175111318069
997.8937345498779
999.6903206303446
999.6903206112546
1002.5202681823
1003.232693313054
1003.232693297512
1001.23078257983
1000.110587579164
998.8972104597298
998.8972104458984
1000.564283783754
999.2227809745222
1000.396351997943
999.7792734570795
999.7792734166327
1000.396352011427
1000.776643980078
1002.025428746908
1002.260990717872
999.4646341959316
1002.153055223475
999.652200685254
1002.260990686373
1002.693609307966
1002.693609325692
998.8460793615651
999.2227809156212
998.0152160051285
998.7007053633804
997.8937345683306