<VTKFile type="PolyData" version="1.0" byte_order="LittleEndian" header_type="UInt64">
  <PolyData>
    <Piece NumberOfPoints="1874" NumberOfVerts="1874">
      <Points>
        <DataArray type="Float64" Name="Points" NumberOfComponents="3" format="ascii">
0.1238987339115798 0.1153870018804416 0.08965316493881034
0.115387001879103 0.1238987339047115 0.08965316494039562
0.1116945891740149 0.1116945891745322 0.08896449099901434
0.0923467412545802 0.1149623734532522 0.05339641025050073
0.08759310692070592 0.1148157223845866 0.04270393663894346
0.09289589271588984 0.112730186670386 0.006794321502455641
0.1236580484816919 0.1070555710969039 0.08819187022929836
0.1070555710956207 0.1236580484760421 0.0881918702283061
0.1344604952939039 0.1255164888723954 0.08980118479473742
0.1255164888726887 0.134460495295613 0.08980118479073233
0.1117833150981816 0.1169596123136944 0.06618463139660283
0.08735645950538687 0.1133775659715708 0.006864757274818817
0.1304622105663234 0.1388296312991804 0.0912480517993754
0.1388296312943391 0.1304622105608291 0.09124805178459384
0.1483408370242714 0.1381754605660808 0.09590185553518632
0.1381754605601347 0.1483408370164304 0.09590185551877844
0.111425367959407 0.123149450505615 0.08346610276660482
0.123149450492428 0.1114253679618368 0.08346610276576909
0.1154244313457134 0.115424431350033 0.08064911398624242
0.1050029196731041 0.1129788095035791 0.08360774403225406
0.1513462957990073 0.1513462958016467 0.09862933260295714
0.1137727615298439 0.1259268593415199 0.0823352967025328
0.1259268593059779 0.1137727615142106 0.08233529669316683
0.1186691685007361 0.1308707104005535 0.08242198057669183
0.1007911161511172 0.1123992007889799 0.000569642747380712
0.1222224844241229 0.1339188136131259 0.081231561175255
0.1366661153022945 0.1262607311376265 0.08226444806562691
0.1383932098424423 0.1477787861400701 0.09135525491383775
0.1262607311481241 0.1366661153059731 0.08226444806503863
0.08723933022554424 0.1140302578197281 0.05310165131495997
0.1193235472911885 0.1193235472980114 0.07433521625834426
0.1298509145904868 0.1391766328301692 0.08251662762534559
0.1391766328394884 0.1298509146029185 0.08251662763600037
0.1339188136186333 0.1222224844294352 0.08123156116998029
0.1258744528966318 0.1094911841160885 0.07608244719596917
0.1094911841240965 0.1258744529162205 0.076082447204483
0.1196604557798975 0.11235241828789 0.07041093527510896
0.1123524182825533 0.1196604557870386 0.07041093528583597
0.1153154917798931 0.1317739848520365 0.075044247855396
0.1477787861504044 0.138393209853872 0.09135525492430817
0.1308707104031604 0.1186691685116361 0.08242198057764835
0.138704303950566 0.1470537043388003 0.0866019258034867
0.1126002829116515 0.1268255911583557 0.04289914054940253
0.1045228368888118 0.1261797983244583 0.07231598880882491
0.1147743089868948 0.1369424601446694 0.06390813589588677
0.1470537043392654 0.1387043039574476 0.08660192580620292
0.116800654558568 0.1449456920043139 0.04806035115918714
0.1075718135306618 0.1455095421117943 0.04387965734126675
0.116432603159294 0.1479408752604827 0.04589236581091206
0.116628947368421 0.1618131578947369 0.09552692307692309
0.1075921052631579 0.1618131578947369 0.09552692307692309
0.116628947368421 0.1618131578947369 0.08676538461538462
0.1075921052631579 0.1618131578947369 0.08676538461538462
0.116628947368421 0.1618131578947369 0.1042884615384616
0.1075921052631579 0.1618131578947369 0.1042884615384616
0.1088713321768039 0.1299194487618618 0.03831977246206066
0.1142770660313141 0.1376067443640899 0.05922054196565952
0.1317739848562778 0.1153154917968893 0.07504424784965337
0.09869124189318819 0.1116693535371685 0.006568953833813778
0.1156959065804229 0.138391041636161 0.05427730150849878
0.1054630020586038 0.1412506023579066 0.0507925675938543
0.1168467349848109 0.1413513072791865 0.05056059224393834
0.1062241884049319 0.1432355101112582 0.04616491059619133
0.1123762526711697 0.1270180253200935 0.01933934251827219
0.1063873029603526 0.1225372849865276 0.01535055715254589
0.1081768873000534 0.1222800640076373 0.006788547542129547
0.1149887410281493 0.1384110958636585 0.02193917359741815
0.1149328592867472 0.1521978534541475 0.02468378849628425
0.1083834070159229 0.132577179889766 0.07147341735172624
0.1150168122659748 0.1488992863766188 0.0306105118817698
0.1065854787610672 0.1506203441115004 0.03069331456414986
0.1161422921043842 0.151731072659226 0.03735765934200871
0.1134611503832207 0.1357823708547794 0.006061642762458156
0.105853534525507 0.1520369721217437 0.02429980639797284
0.1095744666888503 0.1375703764882699 0.004944789214683001
0.1157377107559479 0.1471519193702869 0.02073347251949469
0.1148932449466467 0.1424432238940674 0.01180640414587715
0.008186842105263157 0.116628947368421 0.11305
0.1093724423248042 0.1290136470901482 0.05267184292571932
0.1072935466478071 0.1201455386016803 0.05224995590079835
0.116628947368421 0.1618131578947369 0.07800384615384616
0.116959612313375 0.1117833150977317 0.0661846313924047
0.1353155913966347 0.1263752598821405 0.0439732817138828
0.1263752598808736 0.1353155913947594 0.0439732817189771
0.1449456920066494 0.1168006545448439 0.04806035115925038
0.1455095421229088 0.1075718135152386 0.04387965735790771
0.1380850983918893 0.138085098391111 0.05206936966108722
0.1458099103562355 0.0976557087719627 0.04068713073356654
0.1254283692115858 0.1466457025565261 0.05055411910375763
0.1466457025404904 0.1254283692097016 0.05055411909003089
0.1509419494703251 0.1426639483176395 0.0683944078332978
0.14266394831865 0.1509419494687264 0.06839440783734441
0.1477177110133065 0.1352746805254758 0.05706777896154885
0.1352746805264262 0.1477177110129673 0.05706777896326453
0.1479408752607142 0.1164326031483038 0.04589236581706139
0.1519737276766683 0.1519737276811456 0.07845944654884986
0.1618131578947369 0.1075921052631579 0.08676538461538462
0.1618131578947369 0.116628947368421 0.08676538461538462
0.1618131578947369 0.1075921052631579 0.09552692307692309
0.1618131578947369 0.116628947368421 0.09552692307692309
0.1618131578947369 0.1075921052631579 0.1042884615384616
0.1618131578947369 0.116628947368421 0.1042884615384616
0.1510810099629413 0.1423902781811237 0.06170447767343813
0.1521809388487578 0.1521809388486685 0.07056584725180549
0.1075921052631579 0.1618131578947369 0.07800384615384616
0.1423902781888626 0.1510810099549544 0.06170447768059836
0.1256657894736842 0.1618131578947369 0.09552692307692309
0.1527763157894737 0.1618131578947369 0.08676538461538462
0.1437394736842105 0.1618131578947369 0.08676538461538462
0.116628947368421 0.1618131578947369 0.0692423076923077
0.1075921052631579 0.1618131578947369 0.0692423076923077
0.116628947368421 0.1618131578947369 0.06048076923076924
0.1075921052631579 0.1618131578947369 0.06048076923076924
0.116628947368421 0.1618131578947369 0.05171923076923078
0.1347026315789474 0.1618131578947369 0.08676538461538462
0.1256657894736842 0.1618131578947369 0.08676538461538462
0.1075921052631579 0.1618131578947369 0.05171923076923078
0.116628947368421 0.1618131578947369 0.04295769230769231
0.1618131578947369 0.1256657894736842 0.08676538461538462
0.1618131578947369 0.1347026315789474 0.08676538461538462
0.1075921052631579 0.1618131578947369 0.04295769230769231
0.1618131578947369 0.1437394736842105 0.08676538461538462
0.116628947368421 0.1618131578947369 0.03419615384615385
0.1618131578947369 0.1527763157894737 0.08676538461538462
0.1075921052631579 0.1618131578947369 0.03419615384615385
0.1073787028575361 0.1497793962924973 0.03731098264619311
0.1618131578947369 0.1618131578947369 0.08676538461538462
0.116628947368421 0.1618131578947369 0.02543461538461539
0.1075921052631579 0.1618131578947369 0.02543461538461539
0.1126452585537882 0.1350644826301711 0.02707407959849932
0.116628947368421 0.1618131578947369 0.01667307692307693
0.1162563438381917 0.150388764322551 0.04299565053238555
0.1075921052631579 0.1618131578947369 0.01667307692307693
0.1113027546552914 0.1363605847606391 0.066508035260213
0.1111144178814697 0.1320949815958616 0.03186883869180843
0.116628947368421 0.1618131578947369 0.007911538461538463
0.1075921052631579 0.1618131578947369 0.007911538461538463
0.1150846077728435 0.1461777166320753 0.01633789097400384
0.04433421052631578 0.1618131578947369 0.1218115384615385
0.1077511647900858 0.1475968114007257 0.04138438282024397
0.1108250947016571 0.1349249526645041 0.06922311706689024
0.1095635233156439 0.1316082387684262 0.03552219493487858
0.1618131578947369 0.1256657894736842 0.09552692307692309
0.1618131578947369 0.1347026315789474 0.09552692307692309
0.1618131578947369 0.1437394736842105 0.09552692307692309
0.1618131578947369 0.1527763157894737 0.09552692307692309
0.1618131578947369 0.1618131578947369 0.09552692307692309
0.1618131578947369 0.1256657894736842 0.1042884615384616
0.1618131578947369 0.1347026315789474 0.1042884615384616
0.1618131578947369 0.1437394736842105 0.1042884615384616
0.1618131578947369 0.1527763157894737 0.1042884615384616
0.1618131578947369 0.1618131578947369 0.1042884615384616
0.1527763157894737 0.1618131578947369 0.09552692307692309
0.149198938974354 0.09848415662149231 0.03479465262210539
0.1428319937683834 0.09822301565959252 0.02394964852640085
0.1326530543271438 0.0973898753704391 0.009533736641069879
0.1527763157894737 0.1618131578947369 0.1042884615384616
0.1437394736842105 0.1618131578947369 0.09552692307692309
0.1347026315789474 0.1618131578947369 0.09552692307692309
0.1437394736842105 0.1618131578947369 0.1042884615384616
0.1249923029356815 0.09859311625783281 0.01613249183168157
0.07144473684210526 0.1618131578947369 0.11305
0.1618131578947369 0.09855526315789473 0.07800384615384616
0.1347026315789474 0.1618131578947369 0.1042884615384616
0.1256657894736842 0.1618131578947369 0.1042884615384616
0.1618131578947369 0.09855526315789473 0.0692423076923077
0.1618131578947369 0.09855526315789473 0.06048076923076924
0.1618131578947369 0.09855526315789473 0.05171923076923078
0.1618131578947369 0.09855526315789473 0.04295769230769231
[...]
      <PointData>
        <DataArray type="UInt64" Name="type" format="ascii">
1
1
1
1
1
1
1
1
1
1
1
1
1
1
1
1
1
1
1
1
1
1
1
1
1
1
1
1
1
1
1
1
1
1
1
1
1
1
1
1
1
1
1
1
1
1
1
1
1
0
0
0
0
0
0
1
1
1
1
1
1
1
1
1
1
1
1
1
1
1
1
1
1
1
1
1
1
0
1
1
0
1
1
1
1
1
1
1
1
1
1
1
1
1
1
1
0
0
0
0
0
0
1
1
0
1
0
0
0
0
0
0
0
0
0
0
0
0
0
0
0
0
0
0
0
1
0
0
0
1
0
1
0
1
1
0
0
1
0
1
1
1
0
0
0
0
0
0
0
0
0
0
0
1
1
1
0
0
0
0
1
0
0
0
0
0
0
0
0
0
0
1
1
1
0
0
1
1
1
1
1
1
1
1
1
1
1
1
1
1
0
1
1
1
1
1
1
1
1
1
0
1
1
1
1
1
1
1
1
1
1
1
1
1
1
1
1
1
0
0
0
0
1
0
0
0
0
0
0
0
0
0
0
0
0
0
0
0
0
0
0
0
0
0
0
0
0
0
0
0
0
0
0
0
0
0
0
0
0
0
0
0
0
1
0
0
0
0
0
0
1
1
1
1
0
0
0
0
0
0
0
0
0
0
0
0
0
0
0
0
0
0
0
0
0
0
0
0
1
1
1
1
1
1
1
1
1
1
1
1
1
1
1
1
1
1
1
0
0
0
0
0
0
0
0
0
0
0
0
0
0
0
0
0
0
0
0
0
0
0
0
0
1
1
1
1
1
1
1
1
1
1
1
1
1
1
1
1
1
1
1
1
1
1
1
1
1
1
1
1
1
1
1
1
1
1
1
1
1
1
1
1
1
1
1
1
1
1
1
1
1
1
1
1
1
1
1
1
1
1
1
1
1
1
1
1
1
0
1
1
1
1
1
1
1
1
1
1
1
0
1
1
1
1
1
1
1
1
1
1
1
1
1
1
1
1
1
1
1
1
1
1
1
1
1
1
1
1
1
1
1
1
1
1
1
1
1
1
1
1
1
1
1
1
1
1
1
1
1
1
1
1
1
1
1
1
1
1
1
1
1
1
1
1
1
1
1
1
1
1
0
1
1
1
1
1
1
1
1
1
1
1
1
1
1
1
1
1
1
1
1
1
1
1
1
1
1
1
1
1
1
1
1
1
1
1
1
1
1
1
1
1
1
1
0
0
1
1
1
1
1
1
1
1
0
1
0
1
1
1
1
1
1
1
1
0
0
1
1
1
0
0
1
1
0
0
1
1
0
0
1
1
0
0
0
1
1
0
0
1
0
0
1
0
1
1
1
1
1
1
0
1
1
1
1
1
1
1
0
0
0
0
0
0
0
0
0
0
1
0
0
1
1
0
1
1
1
0
1
1
1
1
1
0
0
0
0
0
0
0
0
0
0
0
0
0
1
0
0
0
0
0
0
0
0
0
0
1
1
1
1
1
1
1
1
1
1
1
1
1
1
1
1
1
1
1
1
1
1
1
0
0
0
1
0
1
1
1
0
0
0
0
0
0
1
0
1
0
0
0
0
1
0
0
0
1
0
1
0
0
0
0
0
0
0
0
0
0
1
1
0
1
1
1
0
0
0
0
0
0
0
0
0
0
0
0
0
0
1
0
1
0
1
1
0
0
1
0
0
0
0
1
0
0
1
1
1
0
1
1
1
0
0
0
0
0
0
0
0
1
0
0
1
0
1
0
1
1
1
1
1
1
1
1
1
1
1
1
1
1
1
1
0
0
1
0
1
1
1
1
1
1
1
1
1
1
0
1
0
1
1
1
1
0
0
1
1
0
0
1
1
1
1
1
1
1
1
1
1
1
1
1
1
1
1
1
1
1
1
1
1
1
1
1
1
1
1
1
1
1
1
1
1
0
1
1
1
1
1
1
1
1
1
1
1
1
1
1
1
1
1
0
0
0
0
0
1
1
1
1
1
1
1
1
1
1
1
0
1
1
0
1
1
1
0
1
0
1
1
0
1
1
1
0
0
0
0
0
0
0
0
0
0
0
0
0
0
0
1
0
0
0
0
0
0
0
0
0
0
0
0
1
1
1
0
0
0
0
0
0
0
0
0
0
0
0
0
0
0
0
0
0
0
0
0
1
0
0
0
0
0
0
0
0
0
1
1
0
0
0
0
0
0
0
0
0
0
0
0
0
0
0
0
0
0
0
0
0
0
0
0
0
0
1
1
1
1
1
1
0
1
1
1
1
1
1
1
1
1
1
1
1
1
1
1
1
1
1
1
1
1
1
1
1
1
1
1
1
1
1
1
1
1
1
1
1
1
1
1
1
1
1
1
1
1
1
1
1
1
1
1
1
1
1
1
1
1
1
1
1
1
1
1
1
1
1
1
1
1
0
0
1
1
1
1
1
1
1
1
1
1
1
1
1
1
1
1
1
1
1
1
0
0
1
1
0
0
0
0
0
1
1
1
1
1
1
0
1
1
1
1
1
1
1
0
1
1
1
1
0
1
1
0
0
1
1
1
1
1
1
1
1
0
0
1
1
1
1
1
1
1
1
1
1
1
0
0
1
0
1
0
1
1
0
0
0
0
1
1
1
1
1
1
0
0
0
0
1
1
1
1
1
1
1
1
1
1
1
1
1
1
1
1
1
1
1
1
0
0
0
0
0
0
0
0
0
0
0
0
0
0
0
0
0
0
0
0
0
0
0
0
0
0
0
1
0
0
0
0
0
0
0
0
0
0
0
0
0
0
0
0
0
0
0
0
0
0
0
0
0
0
0
0
0
0
1
1
1
1
1
1
1
1
1
1
1
1
1
1
1
1
1
1
0
0
1
1
1
1
1
1
1
1
1
1
1
1
1
1
1
1
1
1
1
1
1
0
1
1
1
1
1
1
1
1
1
1
1
1
1
1
1
0
1
0
1
1
1
1
1
1
1
1
1
1
0
1
1
1
0
1
1
1
1
1
1
1
1
1
0
1
1
1
1
0
1
1
1
1
1
1
1
1
0
1
1
1
1
1
0
1
1
1
1
1
1
1
1
1
1
1
1
1
1
1
1
1
1
1
1
1
1
1
1
1
1
1
1
1
1
1
1
1
1
1
1
1
1
1
1
1
1
1
1
1
1
1
1
1
1
1
1
1
1
1
1
1
1
1
1
1
1
1
1
1
1
1
1
1
1
1
1
1
1
1
1
1
1
1
1
1
1
1
1
1
1
1
1
1
1
1
1
1
1
1
1
1
1
1
1
1
1
1
1
1
1
1
1
1
1
1
1
1
1
1
1
1
1
1
1
1
1
1
1
1
1
1
1
1
1
1
1
1
1
1
1
1
1
1
1
1
1
1
1
1
1
1
1
1
1
1
1
1
1
1
1
1
1
1
1
1
1
1
1
1
1
1
1
1
1
1
1
1
1
1
1
1
1
1
1
1
1
1
1
1
1
1
1
1
1
1
1
1
1
1
1
1
1
1
1
1
1
1
1
1
1
1
1
1
1
1
1
1
1
1
1
1
1
1
1
1
1
1
0
0
0
0
1
1
1
1
1
1
1
1
1
1
1
1
1
1
1
1
1
1
0
0
0
0
0
1
1
1
1
1
1
1
1
1
0
0
0
0
0
0
0
0
0
1
1
1
1
1
0
0
0
0
0
0
0
0
0
1
1
1
1
1
1
1
1
1
1
1
1
1
1
1
1
1
1
1
1
1
1
1
1
1
1
1
1
1
0
0
0
0
0
0
0
0
0
0
0
0
0
0
0
0
0
0
0
0
0
0
0
0
0
0
0
0
0
0
0
0
0
0
0
0
0
0
0
0
0
0
0
0
0
0
0
0
0
0
0
0
0
0
0
0
0
0
0
0
0
0
0
0
0
0
0
0
0
0
0
0
0
0
0
0
0
0
0
0
0
0
0
0
0
0
0
0
0
0
0
0
0
0
0
0
0
0
0
0
0
0
0
0
0
0
0
0
0
0
0
0
0
0
0
0
0
0
0
0
0
0
0
0
0
0
0
0
0
0
0
0
0
0
0
0
0
0
0
0
0
0
0
0
0
0
0
0
0
0
0
0
0
0
0
0
0
0
0
0
0
0
0
0
0
0
0
0
0
0
0
0
0
0
0
0
0
0
0
0
0
0
0
0
0
0
0
0
0
0
0
0
0
0
0
0
0
0
0
0
0
0
0
0
0
0
0
0
0
0
0
0
0
0
0
0
0
0
0
0
0
0
0
        </DataArray>
        <DataArray type="Float64" Name="density" format="ascii">
999.0535282989041
999.0535284159141
1000.545916988036
1001.014087485115
1000.66930841973
999.563468625165
999.8748349279915
999.8748350741663
1000.382186305726
1000.382186311386
1000.928939568809
1000.758370280846
999.5557892379629
999.5557892714731
998.2384171020846
998.2384171120178
1000.38585039756
1000.385850402729
1000.810485554669
1001.382305078695
998.7349891434546
1000.541346437849
1000.541346441979
1001.660981950857
998.8159492743536
999.1681462397963
998.7012955741712
1001.112922312474
998.7012956125076
999.7701320110756
1001.432215751975
999.9124555928197
999.9124556092531
999.1681462021395
1000.446542761212
1000.446542735465
1001.722440102354
1001.722440068268
1000.881952212981
1001.11292231924
1001.660981913918
999.2547260718048
1004.943484138203
999.3970920960917
998.0363388538912
999.254726057851
1000.986203150992
1000.162485537931
998.3688793391049
1000.139312639137
1000
1000
1000
1000
1000
1003.70872758883
1000.774141557994
1000.881952248461
999.4543333030049
1002.299753164332
1002.494470247497
1002.812471461172
1001.392263164991
991.4596903238674
1006.139661709725
1000.759403220749
1017.582642012253
986.4741976915351
997.8275433690441
1010.010042189245
1005.174146292526
999.9072967653653
1000.698979893755
981.2033006374916
998.0419924702743
993.2660350436612
1003.453268579416
1000
997.101490356399
1003.54016888634
1000
1000.928939618069
1001.07126270798
1001.071262732584
1000.986203123686
1000.162485676569
998.9198908337818
997.8200544889904
1000.679369955784
1000.679369966935
1002.079052023289
1002.079051993677
1000.05585109169
1000.055851031113
998.3688793952116
1000.230988550083
1000
1000
1000
1000.139312639242
1000
1000
998.678267396968
1002.257795054992
1000
998.6782673816332
1000
1000
1000
1000
1000
1000
1000
1000
1000
1000
1000
1000
1000
1000
1000
1000
1003.701733567424
1000
1000
1000.302103471877
1000
1000
1001.154915509733
992.4460753789751
1004.048760613994
999.102352621935
1001.850849048997
1000.459690566396
998.035946317383
1018.571858618461
1019.660365266656
995.0773950440592
1000
1000.634902470105
999.6216409147448
998.6710705514816
1000
1000
1000
1000
1000
1000
1000
1000
1000
1000
1000
1002.017558182004
1008.668013734506
1000.492775495549
1000
1000
1000
1000
1009.697786095923
1000
1000
1000
1000
1000
1000
1000
1000
1000
1003.923043481687
1004.792730479096
997.7225691706366
1003.58617722262
1003.091990994013
1017.636165333593
1000.938732348162
998.0517430317304
998.4118878227267
994.5009310887606
999.6849390593437
1001.365626797838
997.8275435159204
1001.078842153352
997.1014903079425
999.1837964286722
999.6216410074251
995.6799804227646
998.3054741673089
997.8736250503582
1000
999.6028512818068
999.2176805223033
1000.459690677872
1000.777499957085
997.7236426447245
999.7627406278348
999.2869658573409
1004.196641736487
1001.098220631244
1000
997.2714083954779
1003.708727548079
1003.213300838451
1000.795768894292
998.0363388823724
1000.359007263335
1000.021321006894
1000.021321170104
997.4574143415726
997.4574142586641
999.8219810461469
999.8219812195425
1000.044632089288
1000.044632260151
993.2660351047106
992.817814513415
997.9342436886215
1008.554812897486
1023.476499086671
1006.057603313242
1003.382658991625
1000.698980016481
1000.881376826668
1000
1000
1000
1000
1001.858635634492
1002.321530216072
1000
1000
1000
1000.198564657958
1000.202935235089
1000
1000
1000
1000
1000
1000
1002.528510885476
1000
1000
1000.565941655026
1002.348592634164
1001.205433567169
1001.494833175295
1001.246667086079
1000.059952337613
1000.505040763018
1002.916681813575
1002.680755259283
1000
1000
1001.398457700458
1001.904727820805
1000.897878402948
1001.205433575222
1000.705644224243
1003.38265902758
1006.057603460118
1023.476499274391
994.2587585174989
1000.897878259948
1001.904727675291
1000
1000
1000
1002.680755232575
995.0773949898621
994.9073192379979
994.9073192595056
1002.450192801278
1002.958830595057
1000.505040868943
1000.059952405849
1001.246667188771
1000
1002.348592725663
1000.565941775046
1000
1000
1000
1000
1000
1000
1000
1000
1000.202935235513
1000
1000
1000
1002.321530230446
1000
1000
1000
1000
999.4214547407154
1001.199188067106
998.9837555145265
998.9837555344616
998.8317675309384
1001.00203586535
1002.377929443913
1001.114014532779
1002.377929332227
994.2587584049296
1003.025365752525
995.9225460290058
1001.407498574427
1001.40749848949
999.8701656610694
1003.453268470418
993.6521423134509
998.0419928417131
1001.309502141115
1019.660365151376
1018.571858480442
1008.554812966952
1001.850849118482
1004.048760842467
1002.528510914837
1001.154915570742
1000
1000
1000
1003.701733538694
1002.958830497604
1000
1000
1000
1000
1000
1000
1000
1000
1000
1000
1000
1000
1000
1001.309502216502
981.649859560596
1000.919308346789
1000.919308817937
996.9420540204162
996.9420541403216
1001.562756389271
1003.52772148472
1003.527721546356
1001.562756274091
1005.710064745548
1003.399718736232
981.2033006264685
997.821452362948
998.6144218889905
998.6144218990166
991.4596902219337
1000.914813780629
1000.914813674169
999.2181168963973
1006.139661749859
995.202386556285
995.2023866410358
986.4741976354011
999.8113943202258
1001.014348782779
1001.014348880661
999.8113944023647
1011.901332400117
1017.582641657432
998.0768832102004
995.2662093973772
999.9072967418997
1008.801259183785
1008.80125913511
1001.365626810171
1002.612302119988
1000.131013178881
1001.38230499053
1004.741016266742
1013.166740418979
1010.010042366845
997.5409768012839
1001.030377924438
998.8695570831511
1001.030377898726
1000.006816217732
1004.741016192609
1000.006816211088
996.9043523732504
1002.814163372836
1002.814163355456
999.1827784361664
998.8695571961291
999.1827783178586
1005.174146329144
1000.290079633884
1000.290079643415
1000.51136030166
1001.755828226563
1001.755828222761
998.8537641718843
1000.663298678572
996.4710041579842
1003.2744925465
1000
999.2542186307583
996.7439659016069
996.7439658467221
1004.670870628086
1003.935833317603
1003.935833295373
1000.302103642867
1001.288426398227
1001.288426419099
992.4460755300832
990.7486257586788
1000
1000.759403396101
1000.734682173758
998.8159491624567
1001.680213453765
1001.680213457299
1002.460604867436
1002.460604798074
997.1053613127167
997.105361358975
993.4911819485528
999.1023526519406
999.8621646460191
1001.13133073628
999.4543332895164
999.7490819323788
999.749081924663
1004.943484099408
997.348530067594
1002.537865090068
998.0359464713719
1002.299753055733
1002.494470129816
1001.11511414322
1002.117465551268
1002.117465558752
1002.275302870383
1002.275302929116
1001.114014550934
992.113670875133
1003.54016885083
1000.999359668324
1000.233426513866
1008.689162767765
1000.744642495484
1000.508580539424
999.3587803933483
999.3587803686287
998.8798922127207
998.8798921489306
1000.634902671848
999.186014378295
997.4548228676026
997.4548229790157
1006.954062413083
1003.02569683714
997.6735719877274
997.6735719657451
998.6710705478419
1001.078842211681
1001.703814510715
999.7204790975971
999.7204791146946
997.6501966108646
1000.570909698901
997.6501965565113
1000.57090971539
1000.229744280714
997.7769295966983
1000.693665616926
997.7769296152434
1000.774141563154
1002.510629060437
1000.032557301254
1000.777500017318
1000.229744315199
1002.510629058196
999.7912448952378
1001.414545394518
999.3466860820835
999.7912449318645
1000
997.2714083514584
1000.852305984228
1002.537865135145
1000.852306036901
1000.120274310286
998.9343343121444
1003.427684752361
999.6953397258047
999.2176805271486
1000.795768800727
1000.032557275545
998.0559953837763
1001.392262889212
1002.812471353452
999.3466860170344
1007.591322666841
1001.131330820025
999.0440540510338
1000.734682258784
998.9343343757357
999.405771911442
993.0128895660731
999.0440540076764
1001.098220659645
999.4057719029688
999.2990448946489
1000.700259532117
995.7268717060738
1000.700259557165
992.1136710810295
1003.025696843736
999.186014464728
999.1997128876009
999.0864167039562
1000.693665635574
1008.689162794962
995.7268717422681
1000.819148184947
1003.209854129355
999.6849388929706
995.0229954080239
998.6223530302748
1000.744642473779
1020.222790550939
1017.636165203198
1001.821078026996
1000.999359760478
1001.645836559906
1004.792730530174
1002.450193162641
998.0517433483404
1005.459215140302
1000.491952830895
1003.491595560237
1001.115114177173
1003.091991024469
1000.865318949357
997.8736250498089
998.0165867843659
993.4911820006619
1008.776557632565
999.1681461939737
1001.798367230436
1000.721680238693
1003.16868780254
1003.92304338314
999.762740723707
999.2869657223885
1004.670870564851
1000
1000
1000.571855794104
1002.017558077209
1000
1000
1000.928939673191
1000.928939627803
1000
1000
1001.09822069409
1001.131330846145
1000
1000
1000
1001.798367013679
1003.27449280081
1000
1000
999.3660120638333
1000
1000
1000.721680210988
1000
1000.579671702524
998.0165865735569
1008.668013890352
1001.645836325267
998.0938596610956
1000.178144326957
1000
986.7785754126858
999.8701656350268
999.6682760342495
998.6223529676253
1000.938732625027
995.7268717545151
998.0363389346837
1000
1000
1000
1000
1000
1000
1000
1000
1000
1000
989.2864346627292
1000
1000
993.8578651578703
998.4877466415427
1000
998.4118879641267
1003.350671678353
994.5009309260232
1000
999.7627405242309
1009.697786013703
1007.574071257464
1001.112922250344
999.6464836999695
1000
1000
1000
1000
1000
1000
1000
1000
1000
1000
1000
1000
1002.321530207045
1000.459690707545
1000
1000
1000
1002.321530214124
1001.858635617227
1000
1000
1000
1000
1000.881376815489
997.873625049369
1000.194023744889
999.6216410140214
1000.154764749407
1000.492775465225
997.9461250467344
1000.489479427735
1001.21943261967
1001.167038366676
1002.173510005976
997.7225691868048
999.5578441554986
1000.359007155902
995.6799804902977
1003.217995151735
1000.370561568625
1002.612302015286
998.853764016235
999.1277762215259
1000.069814556024
995.3220663030546
1002.81001432673
1000.194023713851
1000
1000
1000
1004.196641685998
1000
997.723642623764
984.3479880992159
997.821452310678
1000
1000
1000
1000
1000
1000
1000.73468235361
1000
1000.541346391054
1000
1000
1000
1000
1000.85230608017
1000
1000
1000
1000.541346404407
1000
998.9343344379602
1000
1000
1000
1000
1000
1000
1000
1000
1000
1000
1000.865318906745
1001.131330686874
1000
1000.734682196462
1004.691654630935
997.8200544521727
1000.139312641617
1000
1000
1000
1000
1000
1000
1000
1000.139312639103
1000
1000
1000
1000
1000
999.4057719094711
1000
989.0367244957371
1000
1001.098220585767
999.4057719604258
1000
1000
999.6216408915203
1000
1000
1000
1000
1000.663298693118
1000
1000
999.7912448817674
999.7912449550421
998.6061239942753
1000
1002.510629016782
1002.510629023547
1000.131013123722
1000
1000
1000
1000
1000
1000
1000
1000
1002.257794980181
1000
1000
1001.821077990843
1000
1002.079051933197
1000
999.7204791309465
999.6953397324735
1001.078842209647
1000.230988531128
1000.120274305969
999.7204790809434
999.2461471794726
999.6464836672963
1000.154764752391
999.8621646171679
998.0363389209086
1001.078842094791
998.6061239784086
1000.459690519432
1000.852305954016
1000.194023803233
1000
1000
999.1771155242722
1000
997.8275434246729
999.3970921408585
999.6134011300306
1000.229744271778
1000.229744340439
1000.154764727894
1000.233426491716
1002.079051943221
1000.570909725124
1000.570909685485
1000
999.3970921748112
1000
997.8275435871852
1000.744642485271
998.9343343251481
1000.15476473548
1000
1000
999.6464837004886
1000.194023667921
1000
1000
999.177115443827
1003.586177101136
999.1837964706967
999.2547261021275
999.254726094892
1000.88195217858
1000.881952226969
1001.703814430481
1000.729839948048
1001.722440100592
1001.722440147236
999.8748349060613
999.6134011671918
1000.446542744573
1000.446542707103
999.6682760228991
999.9124555840477
999.9124555845087
999.8842956096596
999.8842956493844
1001.432215756581
993.6521418867668
999.3660120354931
998.0768833873242
998.7012955802286
998.7012955711157
1001.798366816029
999.1681462316038
1001.112922308242
1001.414545388368
1001.660981932606
1001.660981919095
1000.131013333713
998.7349891459112
1000
1001.38230484714
1000.810485562282
1000.385850291103
1000.38585038704
995.2662091539346
999.6028513590733
1000.663298615154
998.2384170568484
998.2384170968862
999.5557892220738
999.5557892704516
1000.382186278736
1000.382186377939
999.8748350895447
1000.5459169955
999.0535283224228
999.0535284604075
1000
1000
1000
1000
1000
1000.897043490307
1000.729839813474
999.2461471477967
998.9598827498073
1000.088474310643
1000.377561027224
999.6331853240299
999.4950313921928
999.4950314380247
999.8963381292222
999.2494810390714
1000
1000.430844868369
999.8963381481751
1000
999.2494811253126
999.0639505545762
999.3660119752785
1000
1000.34923330399
1000
1000.377561015732
1000.468077264595
1000
999.6331853681534
1000.349233333886
1001.001565764416
1000
1000
1000
1000
1000
1000
1000
1000
1000
1000
1000
1000
1000
1000
1000
999.0639505492376
1000
1000
1000
1000
1000
1000
1000
1000
1000
1000
1000
1000
1000.652526980437
998.9598827062588
1000.897043457476
1000
1000
1000
1000
1000
1000
1000
1000
1000
1000
1000
1000
1000
1000
1000
1000
1000
1000
1000
1000
1000
1000.652527009222
1000
1000
1000
1000
1000
1000
1000
1000
1000
998.9598827776689
1000.430844870112
1000
1000
1000
1000
1000
1000
1000
1000
1000
1000
1000
1000
1000
1000
1000
1000
1000
1000
1000
1000
1000
1000
1000
1000
1000
1000
998.9598827101763
1000.088474312239
1000.468077309046
1001.001565748263
999.2494809509025
999.2494809609487
1000
999.6464836770748
998.6710705275486
997.6735720029233
1000.634902631852
1000.634902426819
999.1860143763394
998.8798921060871
998.8798920489681
999.3587804579344
999.3587804885237
1000.508580535197
999.0864167505779
1008.689162840202
1002.275302841814
1002.275302792108
1002.117465595743
1002.11746556877
999.6849389995383
999.6849386856742
998.0359465639
998.0517431809793
997.3485301146229
1000.491952821393
1000.491952777786
1000.491952901378
1005.459215151431
999.9072967611037
996.743965845774
991.4596902299293
1001.115114189484
999.4543332756609
999.4543332998235
996.5122851700282
999.5634685579462
999.5634685838937
999.1023526538499
999.1023526572114
1000.758370297885
1000.758370270472
1000.758370253365
993.4911820437683
1000.938732400958
997.1053613718858
997.1053614266539
1001.680213482985
1001.68021355844
998.8159491040985
998.8159492190938
1000.759403288944
999.5634685960741
992.4460754704817
1001.288426418437
1001.288426438792
1000.302103455051
1000.302103601728
1004.670870574633
996.7439658599687
1002.017558145929
1002.01755792974
1003.274492696646
1003.217995165441
1000.579671717868
1001.167038401803
1008.668013761792
1000.178144479118
1000.290079598835
1000.29007963591
1001.219432663846
1000.489479382742
1000
1000
995.679980390858
1002.173510107359
1000.359007228507
1006.139661814797
1009.697786070176
1005.174146379885
1007.574071289855
999.5578443295768
997.946125009862
996.9043524824685
994.5009311769369
996.4710042330128
1000.777500012148
1008.801259289903
986.778575338188
989.0367245568877
1004.691654590638
999.6028513769513
997.8214523228719
997.7236425569129
1000
1000
997.7225691216061
1000.777499909449
1000
1000
1000
1000
1000
1008.776557650961
1008.801259199899
999.9072967721398
998.0768832595983
998.6710705231612
995.7268717786761
1003.168687770152
1003.217995155827
1003.025696822313
999.1997127555154
997.9461250457341
997.8200543848066
1001.01408748657
1002.810014357261
1003.491595506809
998.8537640549011
998.09385950337
1000.700259570015
1003.708727545147
1020.222790728816
1000.679369906389
998.3688793651295
1000
1000
998.4877467960063
1000.162485512401
1000.986203198266
1003.350671745484
1001.392262957879
1003.217995256947
1003.5158925863
981.2033006588028
1000
1000
1000.698979781219
993.6521420859543
993.8578653809991
998.4118878129077
1000.79576888118
1006.170458823475
1001.821077979261
1004.943484195289
998.9198908791618
1000.700259556374
1004.196641671814
1000
1000
989.0367246226706
1000
1003.586177024294
1000
1003.705271059078
1002.814163332135
1000
1000
1000
1000
1000.069814873954
1002.814163362059
999.4503529302743
1000.744642477383
1003.705271021569
1004.66623494175