<VTKFile type="PolyData" version="1.0" byte_order="LittleEndian" header_type="UInt64">
  <PolyData>
    <Piece NumberOfPoints="2690" NumberOfVerts="2690">
      <Points>
        <DataArray type="Float64" Name="Points" NumberOfComponents="3" format="ascii">
0.1213219900136936 0.06239199018031713 0.1040053142352458
0.1285461094930271 0.0463140656713963 0.09860257443382836
0.1313124937197681 0.02807375652805648 0.1076483889363852
0.1249224680439222 0.06893215204409527 0.1046050152294948
0.1351205010328933 0.08096623531412878 0.0986118225852765
0.1304878269733016 0.03951217302596571 0.09857547268342065
0.1329271673032405 0.06705565615914401 0.1041858155303131
0.1423953685087178 0.08045961111669839 0.07841961036138376
0.138799315884021 0.08082136571665101 0.09578730090687775
0.1193513512367067 0.07630271927828182 0.09689082007724015
0.1399741642481669 0.02220474019194696 0.1132198278512981
0.1477952598079861 0.03002583574875376 0.1132198278511789
0.1219467743087003 0.08199010181831751 0.08517843906441182
0.1362870756718862 0.05118141862060466 0.1100457304554412
0.1319642367415626 0.07406491272256323 0.1020505492369629
0.1434032989387127 0.03751531791841767 0.1035199801344267
0.1367263093603362 0.05777495140782709 0.1053606606021267
0.1047804066331594 0.07865116205545133 0.07899493014740434
0.1395269633016804 0.06447064651999236 0.09901407795454441
0.1040150458037398 0.08291091955289036 0.07912900751925092
0.1410659978826368 0.02183203150128901 0.1084103451825665
0.1481679684969327 0.02893400211626049 0.1084103451809604
0.1226886843371593 0.08168332992656778 0.1026947567873355
0.1215725883990414 0.06934095136768913 0.09749462799018443
0.1281242301231948 0.08101037046346869 0.06660710951074485
0.1413731385527439 0.06421456658230479 0.0958335340548549
0.1515695348543603 0.01843046514422617 0.1173533246478216
0.1175607197392902 0.08214553502966455 0.09624992422936518
0.1436144567059474 0.08071176634200007 0.08348354463536023
0.1366624513249091 0.06536536470820138 0.1020468875289275
0.1324846820797388 0.02659670105766061 0.1035199801343198
0.1202772222737742 0.08153860528384996 0.0701547903893197
0.1398186241167121 0.07264668741240234 0.09659716131206589
0.1407844700675872 0.03941822312468579 0.1124074506274241
0.1304168330565673 0.08123458657359821 0.1012062059130333
0.1175607197370948 0.08785446497483586 0.09624992423185254
0.1305817768734052 0.02921552993016361 0.1124074506320942
0.1224831043992813 0.08152550939663278 0.07653750929310137
0.1618131578947369 0.08048157894736842 0.11305
0.1618131578947369 0.08048157894736842 0.1218115384615385
0.1087044651288679 0.07670537822686256 0.06676129651705398
0.1331033220123538 0.0601685337758392 0.1074733491347412
0.1236341404799784 0.07017307812650651 0.08573801185681466
0.1282704595930686 0.06317560112341043 0.08661296976687073
0.1419353688226915 0.07251493432734848 0.09360838399771258
0.1416471829039794 0.05375938060725324 0.09528486404355717
0.1341524126462116 0.02531265420012429 0.09959282663557649
0.1446873457990546 0.03584758735109575 0.09959282663826037
0.1276465688813907 0.06956072793769799 0.08426038604505086
0.1274660480424426 0.07585189722817283 0.08276972522143985
0.1095109269130172 0.06694867144584483 0.07998121086293471
0.1325672744075976 0.03743272559287982 0.09161941113275032
0.1427272916193257 0.06339906250859796 0.09211374166583153
0.1068439950978465 0.07351087246012276 0.07886766170657825
0.1256768776524611 0.05541439693695798 0.08144155846997231
0.1266229496692059 0.0617604528783231 0.08071082639553705
0.1309329920891614 0.04581566227694454 0.08660327430541637
0.1435227328274663 0.07229204473864759 0.08976308546674878
0.1208094212259281 0.05785683868096305 0.07862006837991525
0.1424432820483026 0.05372844339474344 0.0905365620962259
0.1493994772719702 0.0278410798464967 0.1035035206428398
0.1421589201534012 0.02060052272648559 0.1035035206454005
0.125330612223085 0.06805782383611399 0.0785649263779344
0.1241336335546372 0.07527494321125849 0.07739710579716853
0.1510511913788254 0.0189488086201725 0.110781371328497
0.1426624547958911 0.04400496939082867 0.09113790724303367
0.1434282756021463 0.06328306894377619 0.08731183443529072
0.1440414604535068 0.07216305240521943 0.08503244629946792
0.1232316495606593 0.09464865680974664 0.1028059197401666
0.1305717500522236 0.05253555975376507 0.07751299210757374
0.1232316495707653 0.0753513431869214 0.1028059197509847
0.1453872816375234 0.03479568280240642 0.09478933294233761
0.1268421368475676 0.08195020350085315 0.08147311325269749
0.126269686854825 0.1028465791181648 0.1165916558128213
0.1328520924878898 0.04322186847908088 0.07974425941312235
0.1199352568368067 0.06163448526893344 0.07131243325758857
0.133379169511083 0.03662083048580583 0.08430643878647216
0.1217279490738953 0.05471551083071961 0.06984070177509057
0.1209555115105404 0.06842151048885804 0.07225320146590486
0.1432135703618473 0.05351992535553153 0.08572270578567272
0.120951801199538 0.07478528799279831 0.07003218718448956
0.131363602871147 0.0585905492384489 0.07179391054108128
0.1079841031300635 0.06993180093514605 0.06604065214769042
0.1298030556823225 0.06531680064466529 0.07041810831474268
0.1437950359741251 0.06238628959671895 0.08218314031320177
0.1527763157894737 0.008186842105263157 0.11305
0.1527763157894737 0.008186842105263157 0.1218115384615385
0.1347026315789474 0.008186842105263157 0.11305
0.1437394736842105 0.008186842105263157 0.11305
0.1347026315789474 0.008186842105263157 0.1218115384615385
0.1437394736842105 0.008186842105263157 0.1218115384615385
0.1618131578947369 0.008186842105263157 0.11305
0.1618131578947369 0.01722368421052631 0.11305
0.1618131578947369 0.02626052631578947 0.11305
0.1618131578947369 0.03529736842105263 0.11305
0.1618131578947369 0.04433421052631578 0.11305
0.1618131578947369 0.05337105263157894 0.11305
0.1618131578947369 0.06240789473684209 0.11305
0.1618131578947369 0.008186842105263157 0.1218115384615385
0.1618131578947369 0.01722368421052631 0.1218115384615385
0.1618131578947369 0.02626052631578947 0.1218115384615385
0.1618131578947369 0.03529736842105263 0.1218115384615385
0.1618131578947369 0.04433421052631578 0.1218115384615385
0.1618131578947369 0.05337105263157894 0.1218115384615385
0.1618131578947369 0.06240789473684209 0.1218115384615385
0.1618131578947369 0.07144473684210526 0.1218115384615385
0.1618131578947369 0.07144473684210526 0.11305
0.1520348018632214 0.01796519813643729 0.09680994424676206
0.1520036190211452 0.01799638097954809 0.08870514697497994
0.1424559198789757 0.0193865455276666 0.08480965360754364
0.1506134544723494 0.02754408011815202 0.08480965360950565
0.1350864920070807 0.02066255635720816 0.07880037835694491
0.1493374436396687 0.03491350799212496 0.07880037835394516
0.1515499232859399 0.01845007671268422 0.1041951251759793
0.120277222272925 0.08846139471711541 0.07015479038616926
0.1426836029113034 0.01962417767181419 0.09159027464708849
0.1503758223277778 0.02731639708927932 0.09159027464951333
0.1354570390485384 0.02242370299017763 0.08417581595688478
0.1475762970054265 0.03454296094773104 0.08417581595516206
0.1463368343398138 0.04494392567742098 0.08158766889935272
0.1268421368458071 0.08804979649932053 0.08147311324951999
0.1351205010445022 0.08903376469123565 0.09861182258428915
0.1345693856845331 0.04999457236595312 0.07195918740157012
0.1450130271988382 0.05324812040179205 0.08168789341524009
0.1427122067075132 0.01981172588426428 0.09794511307768393
0.1501882741152477 0.02728779329324661 0.0979451130757005
0.1489045980695343 0.04506514511889088 0.07710718418088496
0.1504310668698337 0.05340133296734725 0.07381322439338266
0.1352457367603727 0.02396793102872463 0.08923589617279447
0.1460320689682487 0.03475426323897188 0.08923589617191434
0.1255787885697779 0.06202636145184875 0.1077653405967885
0.1392141846877691 0.03078581531020969 0.07597468459914375
0.1244897087611369 0.06419885763320758 0.08884710621903059
0.1352196746203982 0.03478032537862953 0.07960199767363386
0.1418167428806868 0.08935398467676547 0.09237571866411218
0.1451883386209146 0.06240584475849738 0.07774277500098771
0.1385520931586257 0.04223438745774787 0.1247998984455188
0.1360259101799524 0.04226960237741034 0.07407659489791808
0.1475477366076236 0.07124671696595412 0.07229014621247842
0.1481109400013042 0.06230996431683951 0.07449207036785656
0.1407260672862999 0.05547341902265623 0.09908170648705666
0.1477267249096295 0.05330799867235164 0.07799700031055649
0.1432860637938226 0.08949745556776077 0.08788702447429975
0.1228895109384684 0.076146580781351 0.08584469925704691
0.1442173592359114 0.07133962314019549 0.07515822589114175
0.123819637805727 0.0575361450255491 0.09331495575398492
0.143243037211109 0.07188326412183714 0.07968727273737386
0.1283341596069775 0.07430551561244017 0.06608576240932877
0.1418167428803022 0.08064601532162174 0.09237571865206803
0.1441334448650718 0.04467779578322958 0.08600118158710049
0.1414951755434863 0.04506278436541868 0.1004180171743117
0.1432860637961114 0.08050254443007948 0.08788702446910907
0.1391605118529824 0.05614560302891558 0.1025794537797999
0.1352043171967717 0.02461271836174859 0.09478933294253519
0.1518546134533563 0.01814538655092552 0.08104163452627683
0.1527763157894737 0.008186842105263157 0.08676538461538462
0.1527763157894737 0.008186842105263157 0.09552692307692309
0.1527763157894737 0.008186842105263157 0.1042884615384616
0.1347026315789474 0.008186842105263157 0.1042884615384616
0.1437394736842105 0.008186842105263157 0.1042884615384616
0.1618131578947369 0.008186842105263157 0.08676538461538462
0.1618131578947369 0.01722368421052631 0.08676538461538462
0.1618131578947369 0.02626052631578947 0.08676538461538462
0.1618131578947369 0.03529736842105263 0.08676538461538462
0.1618131578947369 0.04433421052631578 0.08676538461538462
0.1618131578947369 0.05337105263157894 0.08676538461538462
0.1618131578947369 0.06240789473684209 0.08676538461538462
0.1618131578947369 0.008186842105263157 0.09552692307692309
[...]
      <PointData>
        <DataArray type="UInt64" Name="type" format="ascii">
1
1
1
1
1
1
1
1
1
1
1
1
1
1
1
1
1
1
1
1
1
1
1
1
1
1
1
1
1
1
1
1
1
1
1
1
1
1
0
0
1
1
1
1
1
1
1
1
1
1
1
1
1
1
1
1
1
1
1
1
1
1
1
1
1
1
1
1
1
1
1
1
1
1
1
1
1
1
1
1
1
1
1
1
1
0
0
0
0
0
0
0
0
0
0
0
0
0
0
0
0
0
0
0
0
0
0
1
1
1
1
1
1
1
1
1
1
1
1
1
1
1
1
1
1
1
1
1
1
1
1
1
1
1
1
1
1
1
1
1
1
1
1
1
1
1
1
1
1
1
1
1
1
1
1
0
0
0
0
0
0
0
0
0
0
0
0
0
0
0
0
0
0
0
0
0
0
0
0
0
0
0
0
0
0
0
0
0
1
1
1
1
1
1
0
1
1
1
1
1
1
1
1
0
0
1
0
0
0
0
1
1
0
1
1
1
1
1
1
1
1
1
1
1
1
1
1
1
1
1
1
1
1
1
1
1
1
1
1
1
1
1
1
1
1
1
0
0
0
0
1
1
1
1
0
0
0
0
0
0
0
0
0
0
0
0
0
0
0
0
0
0
1
0
0
0
0
0
0
0
0
0
0
0
0
0
0
0
0
0
0
1
0
0
0
0
1
1
0
0
0
0
0
0
1
1
1
1
1
0
0
0
0
0
0
0
0
0
0
0
0
0
0
0
0
0
0
0
0
0
0
0
0
1
1
1
1
1
1
1
1
1
1
1
1
1
1
1
1
1
1
1
1
1
1
1
1
1
1
1
1
1
1
1
1
1
1
1
1
1
1
1
1
0
0
0
0
0
0
0
0
0
0
0
0
0
0
0
0
0
0
0
0
0
0
0
0
0
1
1
1
1
1
1
1
1
1
1
1
1
1
1
1
1
1
1
1
1
1
1
1
1
1
1
1
1
1
1
1
1
1
1
1
1
1
1
1
1
1
1
1
1
1
1
1
1
1
1
1
1
1
1
1
1
1
1
1
1
1
1
1
1
1
1
1
1
1
1
1
1
1
1
1
1
1
1
1
1
1
1
1
1
1
1
1
1
1
1
1
1
1
1
1
1
1
1
1
1
1
1
1
1
1
1
1
1
1
1
1
1
1
1
1
1
1
1
1
1
1
1
1
1
1
1
1
1
1
1
1
1
1
1
1
1
1
1
1
1
1
1
1
1
1
1
1
1
1
1
1
1
1
1
1
1
1
1
1
1
1
1
1
1
1
1
1
1
1
1
1
1
1
1
1
1
1
1
1
1
1
1
1
1
1
1
1
1
1
1
1
1
1
1
1
1
1
1
1
1
1
1
1
1
1
1
1
1
1
1
1
1
1
1
1
1
1
1
1
1
1
1
1
1
1
1
1
1
1
1
1
1
1
1
1
1
1
1
1
1
1
1
1
1
1
1
1
1
1
1
1
1
1
1
1
1
1
1
1
1
1
1
1
1
1
1
1
1
1
1
1
1
1
1
1
1
1
1
1
1
1
1
1
1
1
1
1
1
1
1
1
1
1
1
1
1
1
1
1
1
0
0
1
1
1
1
1
1
1
1
0
1
1
1
0
1
1
0
1
0
0
0
0
0
0
0
0
0
0
0
0
0
0
0
0
0
0
0
0
0
0
0
0
0
0
0
0
0
0
0
0
1
1
1
1
1
1
1
1
1
1
0
0
1
1
0
0
1
1
1
1
1
1
1
1
1
0
0
0
0
0
0
0
0
0
0
0
0
1
1
1
1
1
1
1
1
1
1
1
1
1
1
1
1
1
1
0
0
1
1
0
0
0
0
0
0
0
0
0
0
0
0
0
0
0
0
0
0
0
0
0
0
0
0
0
0
0
0
0
1
0
0
0
0
0
0
0
1
0
0
0
1
1
1
1
1
1
1
1
1
1
1
1
1
1
1
1
1
1
1
1
1
1
1
1
1
1
1
1
1
1
1
1
1
1
1
1
1
0
0
0
0
0
1
1
1
1
1
1
1
1
1
1
1
1
1
1
1
1
1
1
1
1
1
1
1
1
1
1
1
1
1
1
1
1
1
1
0
0
0
0
0
0
0
0
0
1
1
1
1
1
1
1
1
1
1
0
0
0
0
0
0
0
0
0
1
1
1
1
1
1
1
1
1
1
1
1
1
1
1
1
1
1
1
1
1
1
0
0
0
0
0
0
0
0
0
1
1
1
1
1
1
1
1
1
1
1
1
1
1
1
1
1
1
1
1
1
1
1
1
1
1
1
1
1
1
1
1
1
1
1
1
1
1
1
1
1
1
1
1
1
1
1
1
1
1
1
1
1
1
1
1
1
1
1
1
1
1
1
1
1
1
1
1
1
1
1
1
1
1
1
1
1
1
1
1
1
1
1
1
1
1
1
1
1
1
1
1
1
1
1
1
1
1
1
1
1
1
1
1
1
1
1
1
1
1
1
1
1
1
1
1
1
1
1
1
1
1
1
1
1
1
1
1
1
1
1
1
1
1
1
1
1
1
1
1
1
1
0
0
0
0
0
0
1
1
1
1
1
1
1
1
1
1
1
1
1
1
1
1
1
1
1
1
1
1
1
1
1
1
1
1
1
1
1
1
1
1
1
1
1
1
1
1
1
1
1
1
1
1
1
1
1
1
1
1
1
1
1
1
1
1
1
1
1
1
1
1
1
1
1
1
1
0
0
0
0
0
0
0
0
1
1
0
0
0
0
0
0
0
0
0
0
1
1
1
1
1
1
1
1
1
1
1
1
1
1
1
0
0
0
0
0
0
0
0
0
0
0
0
0
0
0
0
0
0
0
0
0
0
0
0
0
0
0
0
0
0
1
1
1
0
0
0
0
0
0
1
1
1
1
1
1
1
1
1
1
1
1
1
1
1
1
1
1
1
1
1
1
1
1
1
1
1
1
1
1
1
1
1
1
1
1
1
1
1
1
1
1
1
1
1
1
1
1
1
1
1
1
1
1
1
1
1
1
1
1
1
1
1
1
1
1
1
1
1
1
1
1
1
1
1
1
1
1
1
1
1
1
1
1
1
1
1
1
1
1
1
1
1
1
1
1
1
1
1
1
1
1
1
1
1
1
1
1
1
1
1
1
1
1
1
1
1
1
1
1
1
1
1
1
1
1
1
1
1
1
1
1
1
1
1
1
1
1
0
0
0
0
1
1
1
1
1
1
1
1
1
1
1
1
1
1
1
1
1
1
1
1
1
1
1
1
1
1
1
0
1
1
1
1
0
1
1
1
1
0
1
1
0
1
1
1
1
1
1
1
1
1
1
1
1
1
1
1
1
1
1
1
0
0
0
0
1
1
1
1
1
1
1
0
0
0
0
1
1
0
0
0
0
1
0
0
0
0
1
1
1
0
0
0
0
1
1
1
0
0
0
0
1
1
1
1
0
0
0
0
1
1
1
1
1
1
1
1
1
1
1
1
1
1
1
1
1
1
1
1
1
1
1
1
1
1
1
1
1
1
1
1
1
1
1
1
1
1
1
1
1
1
1
1
1
1
1
1
1
1
1
1
1
1
1
1
1
1
1
1
1
1
1
1
1
1
1
1
1
1
1
1
1
1
1
1
1
1
1
1
1
1
1
1
1
1
1
1
1
1
1
1
1
1
1
1
1
1
1
1
1
1
1
1
1
1
1
1
1
1
1
1
1
1
1
1
1
1
1
1
1
1
1
1
1
1
1
1
1
1
1
1
1
1
1
1
1
1
1
1
1
1
1
1
1
1
1
1
1
1
1
1
1
1
1
1
1
1
1
1
1
1
1
1
1
1
1
1
1
1
1
1
1
1
1
1
1
1
1
1
1
1
1
1
1
1
1
1
1
1
1
1
1
1
1
1
1
1
1
1
1
1
1
1
1
1
1
1
1
1
1
1
1
1
1
1
0
0
0
0
0
0
1
1
1
1
0
0
0
0
0
0
1
1
1
1
1
1
1
1
1
1
1
1
1
1
1
1
1
1
1
1
1
1
1
1
1
1
1
1
1
1
1
1
1
1
1
1
1
1
1
1
1
1
1
1
1
1
1
1
1
1
1
1
1
1
1
1
1
1
1
1
1
1
1
1
1
1
1
1
1
1
1
1
1
1
1
1
1
1
1
1
1
1
1
1
1
1
1
1
1
1
1
1
1
1
1
1
1
1
1
1
1
1
1
1
1
1
1
1
1
1
1
1
1
1
1
1
1
1
1
1
1
1
1
1
1
1
1
1
1
1
1
1
1
1
1
1
1
1
1
1
1
1
1
1
1
1
1
1
1
1
1
1
1
1
1
1
1
1
1
1
1
1
1
1
1
1
1
1
1
1
1
1
1
1
1
1
1
1
1
1
1
1
1
1
1
1
1
1
1
1
1
1
1
1
1
1
1
1
1
1
1
1
1
1
1
1
1
1
1
1
1
1
1
1
1
1
1
1
1
1
1
1
1
1
1
1
1
1
1
1
1
1
1
1
1
1
1
1
1
1
1
1
1
1
1
1
1
1
1
1
1
1
1
1
1
1
1
1
1
1
1
1
1
1
1
1
1
1
1
1
1
1
1
1
1
1
1
1
1
1
1
1
1
1
1
1
1
1
1
1
1
1
1
1
1
1
1
1
1
1
1
1
1
1
1
1
1
1
1
1
1
1
1
1
1
1
1
1
1
1
1
1
0
0
0
0
1
1
1
1
1
1
1
1
1
1
1
1
1
1
1
1
1
1
1
1
1
1
1
0
0
1
0
0
1
1
1
1
1
0
0
0
0
1
1
1
0
0
0
0
0
0
0
0
0
0
0
0
1
0
0
0
0
0
0
0
0
0
0
0
0
1
1
1
1
1
1
1
1
1
1
1
1
1
1
1
1
1
1
1
1
1
1
1
1
1
1
1
1
1
1
1
1
1
1
1
1
1
1
1
1
1
1
1
1
1
1
1
1
1
1
1
1
1
1
1
1
1
1
1
1
1
1
1
1
1
1
1
1
1
1
1
1
1
1
1
1
1
1
1
1
1
1
1
1
1
1
1
1
1
1
1
1
1
1
1
1
1
1
1
1
1
1
0
0
0
0
0
0
0
0
0
0
0
0
1
1
1
1
1
1
1
1
1
1
1
1
1
1
1
1
1
1
1
1
1
1
1
1
1
1
1
1
1
1
1
1
1
1
1
1
1
1
1
1
1
1
1
1
1
1
1
1
1
0
0
0
0
0
0
0
0
1
1
1
1
1
1
1
1
1
1
1
1
1
1
1
1
1
1
1
1
1
1
1
1
1
1
1
1
1
1
1
1
1
1
1
1
1
1
1
1
1
1
1
1
1
1
1
1
1
1
1
1
1
1
1
1
1
1
1
1
1
1
1
1
1
1
1
1
1
1
1
1
1
1
1
1
1
1
1
1
1
1
1
1
1
1
1
1
1
1
1
1
1
1
1
1
0
1
1
1
1
0
0
1
0
0
0
1
0
1
1
0
1
1
1
1
1
1
1
1
1
1
1
1
1
0
1
1
1
0
1
1
1
1
1
1
1
1
1
1
0
1
1
0
0
0
0
0
0
0
0
0
0
0
0
1
0
1
0
0
0
0
1
0
0
0
0
0
0
0
0
0
0
0
0
0
0
0
0
0
0
0
0
0
0
0
0
0
0
1
0
1
0
0
0
0
0
0
0
1
0
0
0
0
0
0
0
1
1
1
0
0
0
0
0
1
0
0
0
0
0
0
0
0
0
0
0
0
0
0
0
0
0
0
0
0
0
0
0
0
0
0
0
0
0
0
0
0
0
0
0
0
1
0
0
1
0
0
0
0
0
0
0
0
1
1
0
0
1
0
0
0
1
0
0
0
1
1
0
1
1
1
0
0
0
0
1
0
0
0
0
0
0
0
0
0
0
0
0
1
0
0
1
0
0
0
0
0
0
0
0
0
0
0
0
0
0
0
0
0
0
0
0
0
0
1
0
0
0
0
0
1
1
0
0
0
0
0
0
0
0
0
0
0
1
0
0
0
0
0
0
0
0
0
0
0
0
0
0
0
0
0
0
0
1
1
1
1
1
0
0
        </DataArray>
        <DataArray type="Float64" Name="density" format="ascii">
999.515574943444
999.9188514550475
999.7765492551505
999.8925433526816
1000.352336784095
999.2241005348241
998.6763560279286
1002.581348723166
1000.012851781582
998.1120736983328
999.2275430484589
999.2275430526075
1002.388521032091
998.8197757686833
1000.877909753215
999.4748234705394
1001.058576329722
999.9383624235121
1003.226708220445
999.3471766106899
1000.991681345598
1000.991681352852
999.4005572796282
999.6031171206887
1002.950135174029
1002.843395991096
1001.170547322336
997.3600151791285
1003.898809183899
1000.85548623189
999.4748234500188
1001.236052350224
1002.040475571918
1000.00352833565
1001.668639013159
997.3600151898665
1000.003528360421
1000.297065028192
1000
1000
1000.090814288578
1001.092894920992
1000.40672249747
997.4595743521537
1000.698698375147
1001.180091750834
1000.417886209642
1000.417886232475
998.7268809716862
997.7730035349355
1001.902804954431
1000.74846650651
999.306632057227
1002.031702271389
1000.174036653146
1001.781572558916
1001.597259788189
998.3688474947123
1000.124614535665
997.5039061751187
999.5384496899169
999.5384496794844
1002.358638857896
1001.498791670495
1002.22106990175
1002.01282726939
1000.180168539609
1001.251085794488
999.5759415025523
998.4432845178395
999.5759415504239
1001.887519995702
998.1185882722813
998.4469529359475
999.8011347103843
1000.853790847677
999.2511339162884
1001.371362002991
1001.96763943007
1000.329674762969
1000.806307341608
1001.269049173701
998.106091985057
1001.03446123706
1001.879254388856
1000
1000
1000
1000
1000
1000
1000.172292915357
1000
1000
1000
1000
1000
1000
1000
1000
1000
1000
1000
1000
1000
1000
1000
999.2584318453324
998.8269185702461
1000.21949820929
1000.21949821307
1001.015752322002
1001.015752325393
1000.586086155332
1001.236052334051
998.8623038576816
998.8623038529242
1000.38511165789
1000.385111678956
1000.840907737731
998.1185882891436
1000.352336792384
995.8298102035244
1002.20152396812
999.3641384806099
999.364138481604
1001.448611548172
1000.201668121455
1000.568724616452
1000.568724631627
999.5310791420135
996.874482707435
996.6737342004318
999.9877774471012
994.5183026413889
1002.093307426497
1001.543137744136
1000.836666871748
998.8591368146066
999.7257349301156
1000.81844973987
1002.164964325728
1001.667307033244
1000.461297119852
998.7314525359158
998.6971272893179
1003.665639614363
1002.675826024132
994.5183026874156
1000.107676315999
1001.743458596496
1001.66730695881
1000.440851413799
1001.887519981662
1000.87547909481
1000
1000.010548340262
1000
1000
1000
1001.295400842028
1000
1000
1000
1000
1000
1000
1001.846446267025
1000.01054833981
1000
1000
1000
1000
1000
1000.590809606778
1000
1000
1000
1000
1000
1000
1000
1000
1000
1000
1000
1000
1000
1000.297065048416
1000.16277391011
1003.898809150085
1001.144442730167
1001.144442732905
1000.167815766515
1000
998.4639539499601
998.4639539961819
997.4584227592983
1000.017488236674
1000.017488292292
1002.581348716403
1000.0128517388
999.4005572622848
1000
1000
1001.668639038395
1000
1000
1000
1000
1002.950135158399
1000.613965459312
1000
1002.388521048595
1001.498791701116
997.7761446602627
999.776549261248
997.7730035509227
1000.461297156664
998.1120737059255
1000.030356466916
998.1003685152037
998.1003684808034
995.1182897471141
995.1182895359265
997.0974964308717
997.0974965671256
994.4773637606639
994.4773635609992
1002.204506312973
1000.083643964795
1002.727339640232
999.7983049547958
1006.449077738165
1004.302203020361
996.7873895767553
996.7873894902767
994.3594583654773
994.3594582860724
1000.253200217579
1000.289119656987
997.7956853328467
989.6601673122327
1000.728631097219
1004.077322968781
998.4857827989339
1011.693673610741
1023.665715875672
1007.366537315762
1003.974035553462
1000.186389766804
1001.555369974036
1014.019104254879
1005.018336914572
1000.922426037425
1000.116404311568
1000
1000
1000
1000.432234265058
1000.286218769897
1000.323152971893
1000
1000
1000.476790179214
1000.201792461177
1000.221913490622
1000.390509717761
1000
1000
1000
1000.259115387501
1013.164965811451
1000.499988499174
1000
1000
1000.545121108784
1001.150707997704
1000.594351736849
1002.269077151779
1003.793784424341
1001.731239581802
1000.541314715015
1003.672074205336
1004.329209772292
1003.406635260866
1000.141977757301
1001.19394598601
1003.250011905875
1003.203302232531
1000.59435139149
998.487269907569
1000.891213984569
1003.974035446682
1007.366537262271
1023.665715875626
998.4872700342024
1000.15975433983
1003.203302436017
1003.250012192239
1000
1000.141977809428
1003.406635304573
1004.329209842611
999.9291656126927
996.1473681271552
996.1473682194836
995.5660495092415
988.9919016513277
1000.200322573508
1000.541314754138
1001.731239604239
1003.793784493433
1002.953178759828
1001.150707933974
1000.545121059202
1000
1000.453037036306
1000.259115378868
1000
1000
1000.607571367698
1000.390509732998
1000.221913496063
1000.201792473952
1000
1000
1000.323152976042
1000.286218771071
1000
1000
1000
1000.11640430586
997.0122251376564
999.0087640032521
1002.899538038854
994.6332530154426
1004.302203431417
1002.899538046143
999.9235701573936
994.6332531672042
1000.9702886492
995.8324389919562
995.8324386044295
1009.536241351739
998.4507909926029
1005.286217169763
996.4587573346057
1001.781572562304
1005.28621722215
996.458757469287
1000.159754342416
1005.571426601023
1005.571426512393
1000.726783419066
987.1496665222343
999.7719420796381
1000.122891609799
1000.122891659734
999.973482854281
999.7317025833935
999.7317026342211
1005.394313872076
1005.394313894242
1012.266552579449
997.9003183361058
1000.645363707496
994.4703521186693
1001.189153855615
976.4242509960791
994.47035225787
998.7546328774635
998.1340044870065
1023.112550988801
1020.969749074377
1011.693673585376
1004.832578350459
1004.79721271206
1000.499988532808
1005.482769248454
1002.789649405845
1000
1000.66455702628
1000.827921109734
1000.200322654608
1000.834869791136
1001.630058990254
1002.953178843997
1000.049002024695
1000.151766184503
1000.453037090132
1000.437728789247
1000.708246135113
1000.607571348305
1000
1000
1000
1000
998.7546328824624
993.2939595540895
1004.756104689756
1001.757367445136
1000.372214268019
1000.372214176334
998.8683603927645
1001.371740733829
999.5775367343714
1001.72737628176
996.2910431770298
1001.727376329754
1005.557601004744
1000.904505596519
1003.116909609243
999.7709609910337
999.7709609834035
1006.242802615711
1016.572761669273
1016.57276169401
1005.871424069114
1006.242802513147
1000.904505641369
1003.631337868065
994.9000313908464
1016.195691163725
1007.810701941961
1002.894743886165
1002.185664334602
1011.243886926825
997.6901369663336
1009.277247236791
999.0652524168648
996.7223674401491
998.2343905638197
998.2343905402377
1002.827996170326
1000.360264385784
1002.727339566797
1003.148381446933
1003.148381452275
984.7490014571027
993.3247894345782
998.7854102189938
1003.021059231169
1002.352706423253
1002.352706426091
1000.367856713036
1000.367856842781
994.0173122886981
994.0173122950157
998.6510312172092
993.1126130666466
1003.161965682723
996.8260309587844
995.034620600218
989.0544514319919
1006.616682230556
1003.964411655458
1000.026515830833
1000.026515843929
1004.027517438787
1003.024276453954
994.1252570916739
994.1252571401378
999.6300784063644
999.8234409586883
1001.402129759926
999.9333698581243
1000.539079571918
1000.539079548952
999.9333698808113
1001.591220714339
993.4809074123277
1002.539317863466
1002.539317834716
1001.942526278506
995.7611489166419
997.88206415242
998.923508748676
1000.658962597028
1004.495577476709
1008.643842685936
1001.041236887299
1004.495577481097
991.2292931046863
999.0859894540528
993.7313457410856
993.7313458580049
993.0873931704191
1000.96522096746
1000.965221078804
997.7799705763705
1001.41744432929
999.788859400476
998.5799980419009
1001.117922769519
997.052349859286
997.0523498557103
1001.117922829176
1001.11792281805
1001.117922775847
1002.176328904087
999.6301144262376
999.6301143629122
1003.595687220139
1001.479538386612
1001.479538370619
1002.984277857344
1000.615410764752
997.2164527112528
1004.470354063497
998.8324780742339
1004.217372971278
996.2920099380557
1002.200565813023
1001.769243300646
1002.200565812691
1001.296174523798
1002.984277923213
1001.296174509235
1003.655066293485
1004.470354074531
993.0873932044705
1000.164419181513
1000.164419170861
1010.459293208813
1000.615410789357
999.4024523564425
1001.769243292869
998.6510311599469
1004.607643869147
999.1132277687209
999.4024523453905
999.1132277560508
994.2001366585
994.915537944308
1001.757367395196
994.9155379651415
995.5697995036465
996.7223674194657
1000.980185889992
999.8234409670375
996.3026694611455
1000.990988465797
1000.990988476141
1000.823075925868
1000.152754597994
1000.152754638933
1002.348893718606
1002.34889374951
999.7715592274598
999.3598311239487
1002.598569301243
999.2565984882987
999.2565984344704
1002.257962265834
1004.85934441216
1001.221426389009
1001.221426353015
1000.45790104717
1000.457901036035
1003.164865437134
995.8986766418724
995.8986766791602
1000.104167982287
1001.236805470157
1001.23680546842
1000.894253995367
996.7425812688396
1001.858734167818
1002.443307947375
1001.93670540435
1004.697373818935
1000.229123829778
1000.229123814715
1000.15213657894
1000.152136549675
1002.191144076878
1002.191144082417
997.1101762021927
999.765198367176
1001.172978748502
1000.554163047397
1000.289364469094
1002.317884407001
1002.317884418739
1003.173802650679
994.652710287776
1001.673526152406
997.5309854110783
1001.455197482385
1003.689982160175
993.7298250153329
998.5000356801349
998.500035694865
1001.775349558621
1001.775349550292
1001.455197434284
1001.455197461306
1001.455197479182
1001.301318657918
1001.301318624548
1000.270996897859
997.2027768840956
999.8974313823188
999.6215170314906
999.6215170253971
1001.090054669442
1001.09005469079
998.5699168497196
996.745031790462
999.5922008561562
999.5922008696707
1003.058270503622
1000.713706791975
997.7375842551131
997.7375842470686
999.8267507804298
1003.68998229634
993.2939595813222
1001.757367445913
1000.904505609065
994.9000313725733
1000.728631140904
1001.91768806305
1001.189153816696
1000.253200285692
1002.984277871483
1005.557601042353
1011.243886916353
1000.367856554529
999.2461568584788
1001.775349483081
1000.083643977331
1002.727339493295
997.6901369627
997.7956854350487
1009.277247238879
1000.289119487671
999.7983049314747
998.668410303256
999.0652524116067
1006.449077670022
1000.372214132856
1001.504840063268
1003.116909595465
1002.827996138567
998.5799980363819
997.6308430466345
1003.148381563422
1000.980185893171
1001.535349770277
1000.186389935429
1001.555370050201
1011.773929993529
996.2920100124567
1000.145587726778
1000.965220968535
997.0523498334995
1014.019104168266
1013.164965713025
1013.466753674007
998.8324780578755
1002.185664277788
998.789095101144
984.7490013894774
1000.531045069962
1001.727376329272
998.6459044457285
1001.727376365862
994.1252572431421
1003.655066373773
994.1252573025168
1003.63133794179
1002.200565754175
1002.200565771142
993.3247895050926
1003.021059236218
1002.352706414689
994.0173122621468
1001.827833030401
998.6510312936608
1003.161965695122
995.034620637944
989.0544514729202
1006.616682233259
1003.964411690335
1000.026515833898
1000.026515843549
1004.027517438986
1003.024276446947
1004.217372994696
999.6300784315081
1004.470354140218
1001.76924323283
1002.539317862354
1001.942526262364
995.7611489657498
997.8820641629444
1000
1000
996.7873896904134
996.7873895723022
994.3594583102198
998.7854102314514
999.5775368457121
998.868360491158
1001.591220761872
996.1473679936287
1000
997.0122252995044
998.1003684038437
998.100368406686
1000.359226895546
1016.57276168119
1007.810701941132
1003.974035514513
999.8267508011184
1000
1000
1000
1000
1000
1000.116404322127
1000.922426015975
1000
1000
1000
1000
1000.323152975057
1000.286218772282
1000.432234251164
1000.437728811186
1000.708246142445
1000.607571367375
1000.390509740608
1000.221913498995
1000.201792447128
1000.476790169139
1000.049002035411
1000.151766189673
1000.453037094016
1000.259115408377
1000
1000
1000
1000.834869791582
1001.63005902737
1002.953178800681
1001.150707956321
995.1182897000973
995.1182895743299
997.0974964604976
996.2910431558643
1001.214426838359
1002.204506308932
999.4024524036828
999.4024523934635
999.9333699334128
976.4242510359703
1003.406635234066
1000.141977802173
999.9333698944703
977.7623524352075
1003.203302331885
1000.594351659611
998.4469529159904
1000.122891591321
999.9734827023909
996.4587575736474
1005.286217312947
1007.511667897124
994.633253073313
1002.899538036974
999.9235701222041
1007.36653724152
1023.665715912341
1000
1000
1000.32315298342
1000
1000.221913500767
1000.390509741565
1000
1000.25911539486
1000.545121014044
1001.150707958337
999.770960987585
1000.970288694806
1000.64536376577
1000.726783546546
1005.394313798075
998.4857828753338
1004.077322973328
999.7719419036717
1000.122891622354
998.7546329533463
998.4507909768059
1005.286217376054
996.4587577042324
999.0087640772148
1002.899537998325
994.6332530848958
1004.302203071717
1000.159754309039
1001.731239532808
1000.541314684124
1004.495577468467
999.0859894437425
1000.116404328623
1000.286218775199
1000.201792434611
1000
1000
1003.793784401513
1004.329209831271
1003.250012130288
1000.891213999511
1003.974035471733
1007.366537207719
1023.665715910377
1011.69367360273
1020.969749100246
1023.112551010431
1001.193946007847
1003.250012026351
1003.203302296921
1000.594351524308
1000.499988571744
1004.797212676586
1004.832578296658
1003.672074214809
1004.329209823169
1003.406635246436
1000.141977753137
1000
1002.789649429999
1005.482769185614
1005.394313706007
1002.26907714277
1003.793784365403
1001.731239537164
1000.541314648659
1000.200322657513
1000.827921132408
1000.664557009351
1016.195691235696
1000
1000
1000.545121050546
1005.571426561411
1005.571426587816
1009.53624129448
994.4773637539028
998.1340042503447
995.8324390467451
999.9291656376211
997.900318309475
995.5660494900794
988.9919019471939
998.2343905379576
987.1496662934825
999.770960952979
999.7317026769834
999.7317026231638
996.1473679362457
1001.40212973766
1006.242802652379
998.9235087083837
1006.242802727008
1001.371740748797
1000.164419264796
992.4325113825458
1000.164419252665
994.4703520342242
1012.266552634045
995.7360813292789
1004.655562092959
998.487270077432
998.4872700806131
1000.539079713257
1000.539079700542
993.0873932002847
1000.101421673756
994.1758434679042
996.9812391031895