<VTKFile type="PolyData" version="1.0" byte_order="LittleEndian" header_type="UInt64">
  <PolyData>
    <Piece NumberOfPoints="1643" NumberOfVerts="1643">
      <Points>
        <DataArray type="Float64" Name="Points" NumberOfComponents="3" format="ascii">
0.07240183114563675 0.06697798881060556 0.04242079863545254
0.06201669629590496 0.1299430728497418 0.0270238630013336
0.05700119457987889 0.1032539074182645 0.00310846622261628
0.06674609256846585 0.1129988054206941 0.00310846621540266
0.04323376769418991 0.1005976835529008 0.019821939999884
0.04936106866760732 0.06500187062912775 0.05155612329922919
0.05117596067933722 0.1188240393526107 0.01368741411755979
0.04232528125899007 0.1183556550339582 0.02361492403118465
0.05164434493970083 0.1276747186586581 0.02361492399837876
0.06208492134946607 0.1478526742666207 0.03218018387941046
0.02214732578273245 0.1079150786314384 0.03218018382249725
0.02462662350662421 0.1349108071104997 0.05851837053938643
0.05007865717263296 0.06638461186029677 0.02900609015402559
0.04498481169362984 0.1495061670122342 0.04025249805423364
0.02049383299430368 0.1250151883258786 0.04025249806965996
0.03332366217238083 0.1269189488438295 0.0329778316514381
0.04308105112609668 0.1366763378420849 0.03297783169566042
0.05205783598827605 0.06621819158713002 0.04693944669903254
0.03508919290592969 0.1453733765090653 0.05851837054935911
0.0742204537874299 0.1224019652538026 0.01388675274520151
0.04759803475872768 0.09577954620130726 0.01388675269688238
0.02725233497822828 0.06370655862695603 0.01289219004745805
0.05352901825648525 0.07451195530682173 0.005063320714589194
0.07395796706482233 0.06942929588934846 0.05382348443726772
0.03184621097299997 0.06391254936399468 0.007049180868262064
0.04002021171994485 0.06954373309831054 0.03904924977795218
0.0360967793001787 0.1502234336669159 0.04600467457042435
0.01977656633926119 0.1339032206879438 0.04600467456271715
0.04661365249345498 0.08919597776430377 0.01049297700330476
0.03069430338900191 0.06626850942606179 0.0500876900316947
0.04661365251629106 0.08080402225292721 0.01049297703033606
0.0725076807424854 0.1482647573032502 0.02730848592599485
0.02173524267041618 0.09749231923505898 0.02730848591634789
0.02854512479784727 0.07477930939326861 0.03689051767210423
0.02604300271924992 0.07191660019738896 0.03043548257279396
0.03301259078740158 0.1304911693886578 0.02664683229968078
0.03950883056976764 0.1369874092192133 0.02664683229760037
0.02867679185631978 0.0743941801695145 0.04224572066251244
0.03701235138638789 0.07394778205973218 0.0268338101154948
0.008186842105263157 0.07144473684210526 0.1042884615384616
0.008186842105263157 0.07144473684210526 0.09552692307692309
0.008186842105263157 0.07144473684210526 0.08676538461538462
0.06887724365846065 0.07844977400998175 0.04441641418574709
0.04978362817353711 0.07249818242585246 0.04707961979092487
0.02912166972433677 0.07425473766427422 0.04723671700000604
0.03234753586384091 0.06813100132152097 0.05385438813772257
0.06007861708240621 0.1280169718179729 0.02322208680890977
0.04198302814835632 0.1099213829356577 0.02322208684858795
0.06986533494145707 0.06986533495050848 0.0134811101786406
0.02475466897097428 0.1208945834122375 0.01704363776740402
0.04059747883849736 0.1220609561575163 0.02183866436015497
0.03099326457383944 0.09935530067464494 0.007352537868230836
0.0342021542530121 0.06831395343431426 0.05611753535842652
0.0301056087605562 0.1398943912424815 0.03993334277583362
0.06017804888259706 0.0601780488862188 0.07647293891755728
0.02184449588399293 0.08912322193104801 0.02631164807446055
0.0218444958986323 0.08087677808668334 0.02631164807723512
0.05418029424397316 0.07263251395110881 0.03041082798789693
0.03479679417685142 0.109854135124672 0.0559232592665098
0.05445980444060968 0.1527674426701277 0.02883023014237573
0.04506076184066764 0.1515860170374762 0.03648999687324277
0.05812051942552054 0.1214302047262463 0.0068263678401734
0.06624563958155458 0.06932869005983273 0.02472242923079324
0.05561626321933224 0.0696254610595128 0.01326087319657054
0.0666718059735199 0.1271253870163791 0.01519088628701288
0.04287461300204536 0.1033281940297343 0.01519088630976653
0.03805490684784101 0.07024715039992431 0.05839307803858136
0.03862430726074031 0.07659135113057244 0.05677461042274565
0.06712694399408496 0.07835400709780087 0.02322439661534259
0.05408854937459197 0.1502570351407842 0.03478070194074632
0.01974296489843641 0.1159114506319421 0.03478070188246528
0.05093687378873409 0.07128367928027131 0.02416255457286538
0.07247223662477452 0.1287512231477292 0.007851319010341513
0.04124877670609582 0.09752776333463184 0.007851318990629351
0.06697798880025713 0.07240183112491352 0.0424207986358707
0.07064469929065662 0.1390067354823898 0.007352537927362193
0.02619020656143221 0.0893376832625256 0.01546238143890755
0.02619020655683041 0.08066231673567045 0.01546238141769487
0.0694292959168317 0.07395796705865718 0.05382348442526681
0.04793904381494531 0.1294025210972991 0.02183866428188855
0.03330270843664772 0.1285573257754406 0.02920741811679725
0.04144267417092515 0.1366972915520433 0.02920741814767666
0.03350772260711605 0.07536462439380547 0.05462233497240204
0.0419711028488247 0.07005527241931891 0.02521787286548293
0.0292287511105846 0.06740330430582918 0.04608384755327651
0.05815242377890166 0.1310615727348981 0.01710917570445063
0.03893842695962903 0.1118475762054293 0.01710917598481246
0.04801715810124246 0.1219828420233161 0.006355452052435143
0.03077712496324045 0.07473439865330586 0.05156212107409359
0.01837265171594035 0.1422571486753282 0.04976197828473682
0.05439217085726679 0.07190593987487143 0.04026325721453352
0.05275257260301951 0.0681352145815453 0.03470149263102236
0.04709958956377115 0.0724170432365627 0.05598733594686169
0.02774285133518822 0.1516273483162622 0.04976197827968895
0.01910406139591116 0.10684250192894 0.02802667290901372
0.06315749807631599 0.1508959386146527 0.02802667289664921
0.04760047694460447 0.07731276204954048 0.05358137607489607
0.04096689117375543 0.07466478603591571 0.03853647508515932
0.01841398298758021 0.124939238173795 0.03648999688150029
0.008186842105263157 0.07144473684210526 0.007911538461538463
0.008186842105263157 0.07144473684210526 0.01667307692307693
0.008186842105263157 0.07144473684210526 0.02543461538461539
0.07149897137493579 0.1506066505646168 0.02380192639911055
0.01939334944804267 0.09850102862295333 0.02380192637997192
0.008186842105263157 0.07144473684210526 0.03419615384615385
0.008186842105263157 0.07144473684210526 0.04295769230769231
0.008186842105263157 0.07144473684210526 0.05171923076923078
0.008186842105263157 0.07144473684210526 0.06048076923076924
0.04323376760983837 0.06940231646072507 0.01982193997035407
0.06819340311621068 0.1338519088705672 0.01403499295830792
0.0223491868153402 0.07202138311476798 0.01846340858332733
0.008186842105263157 0.07144473684210526 0.07800384615384616
0.008186842105263157 0.07144473684210526 0.0692423076923077
0.03297650362594212 0.07441162717095148 0.003758732207394643
0.03614809100298105 0.1018065968521332 0.0140349931424202
0.0281735505446265 0.07261086303269404 0.01186059834478541
0.06014586486984171 0.1352032057975148 0.05592325926800464
0.04796422482307183 0.06500525504383767 0.07578004814034094
0.0211481426762711 0.08970609483250611 0.02000978687989514
0.02577648332144856 0.07195994567375179 0.01546770973962577
0.06500525504612611 0.04796422481420946 0.07578004814644441
0.07195994567768751 0.1442235166788867 0.01546770974622091
0.02577648328300029 0.09804005431605239 0.01546770975696861
0.0441500028609412 0.1221544345894753 0.01361678602447544
0.04784556550048293 0.1258499972045363 0.01361678590098762
0.03806608319128476 0.08202754076820234 0.007911801991548237
0.04796422481164456 0.1049947449556368 0.07578004815387245
0.0380660832192035 0.08797245912893545 0.007911801939602446
0.03614809121920813 0.06819340306828699 0.01403499284362834
0.01939334945513191 0.07149897138210246 0.0238019264117926
0.02114814266855619 0.08029390518677722 0.02000978688390307
0.03625289930886053 0.15209161437583 0.04085195217973482
0.01790838563534584 0.1337471006802881 0.04085195218974617
0.04453643884968801 0.1254635611496667 0.05524779348302523
0.02446023819729574 0.04453524676878585 0.01527416717641117
0.008186842105263157 0.08048157894736842 0.0692423076923077
0.008186842105263157 0.08048157894736842 0.07800384615384616
0.03111155769335011 0.0808616851774307 0.007408977253273668
0.02529381544267051 0.08071380131089978 0.01433243091988304
0.053949482054178 0.1110898809090545 0.0528838723443735
0.05891011908206676 0.1160505179515631 0.05288387235332467
0.06962546106928584 0.1143837367942524 0.01326087321871346
0.06365592147147496 0.149887320065635 0.02208520482066886
0.06500187063348012 0.120638931336517 0.0515561233053007
0.04563004746885654 0.1303962954467634 0.009010278080377063
0.04124877685053111 0.07247223661781668 0.007851319022880757
0.03473572159148758 0.1142785526636768 0.05355356426437247
0.05572144726773347 0.1352642783660904 0.05355356425379418
0.04287461300796696 0.06667180597370377 0.01519088627119046
0.03099326448036934 0.07064469927129598 0.007352537942432544
0.02928934996006986 0.140710650077455 0.02984085455526813
0.07202138311883571 0.1476508131949134 0.01846340858166286
0.05675471665389352 0.07620543051306865 0.01133714270857467
0.02173524272065479 0.07250768075274765 0.02730848592792893
0.04856979535114966 0.1118794804738074 0.006826367880674592
0.03069192243084172 0.1393080775882925 0.03498186997555956
0.0475980347420349 0.07422045379792845 0.01388675274406441
0.0500997106662373 0.1091012656729601 0.02891267681381546
0.02881167727778056 0.1149862914118004 0.01050154802927528
0.04575111494031858 0.1503529076083996 0.02638481923301231
0.05892009922402663 0.06652333833147894 0.07199084722940534
0.03345045649592367 0.08920722530329547 0.02338034903596309
0.02503532080040628 0.08895407680538187 0.02945664262136688
[...]
      <PointData>
        <DataArray type="UInt64" Name="type" format="ascii">
1
1
1
1
1
1
1
1
1
1
1
1
1
1
1
1
1
1
1
1
1
1
1
1
1
1
1
1
1
1
1
1
1
1
1
1
1
1
1
0
0
0
1
1
1
1
1
1
1
1
1
1
1
1
1
1
1
1
1
1
1
1
1
1
1
1
1
1
1
1
1
1
1
1
1
1
1
1
1
1
1
1
1
1
1
1
1
1
1
1
1
1
1
1
1
1
1
1
1
0
0
0
1
1
0
0
0
0
1
1
1
0
0
1
1
1
1
1
1
1
1
1
1
1
1
1
1
1
1
1
1
1
1
1
1
0
0
1
1
1
1
1
1
1
1
1
1
1
1
1
1
1
1
1
1
1
1
1
1
1
1
1
1
1
1
1
1
1
1
1
1
1
1
1
1
1
1
1
1
1
1
1
1
1
1
1
1
1
1
1
1
1
1
1
1
1
1
1
1
1
1
1
1
1
1
1
1
1
1
1
0
0
1
1
1
1
1
1
1
0
0
1
1
1
1
1
1
1
1
1
1
1
1
1
1
1
1
1
0
0
1
0
1
0
0
0
1
0
0
0
0
0
0
0
1
0
1
1
1
1
1
0
0
0
0
0
0
0
1
1
1
1
1
1
1
1
1
1
1
1
1
1
1
1
1
1
1
1
1
1
1
1
1
1
1
1
1
1
1
1
0
0
0
0
0
0
0
0
0
0
0
0
0
0
0
0
0
0
0
0
0
0
0
0
0
1
0
0
0
0
0
0
0
1
0
0
0
0
0
0
0
0
0
0
0
0
0
0
0
0
0
0
0
0
0
0
0
0
0
0
0
0
0
0
0
0
0
0
0
0
0
0
0
0
0
0
0
0
0
0
0
0
0
1
0
0
0
0
0
0
0
1
1
1
1
1
1
1
1
1
1
1
1
1
1
1
1
1
1
1
1
1
0
0
0
0
0
0
0
1
1
1
1
1
1
1
1
1
1
1
1
1
1
1
1
1
1
1
1
1
1
1
1
1
1
1
1
1
1
1
1
1
1
1
1
1
1
1
1
1
1
1
0
1
1
1
1
1
1
1
1
1
1
1
1
1
1
1
1
1
0
1
0
1
1
1
1
1
1
1
1
1
1
0
1
1
1
1
0
1
1
1
1
1
1
1
1
1
0
1
1
1
1
1
0
1
1
1
1
1
1
1
1
1
1
0
1
1
1
1
0
1
1
1
1
1
1
1
1
1
1
1
1
1
1
1
1
1
1
1
1
1
1
1
1
1
1
1
1
1
1
1
1
1
1
1
1
1
1
1
1
1
1
1
1
1
1
1
1
1
1
1
1
1
1
1
1
1
1
1
1
1
1
1
1
1
1
1
1
1
1
1
1
1
1
0
0
1
1
1
1
1
0
1
1
1
0
1
1
1
0
1
0
1
0
0
1
1
0
1
1
1
1
1
1
1
1
1
1
1
0
0
0
1
0
0
0
1
1
1
1
1
0
0
0
0
0
0
0
0
0
0
0
0
0
0
0
0
0
0
0
0
0
1
1
1
1
1
1
1
1
1
1
1
1
1
1
1
1
1
1
1
1
1
1
1
1
1
1
1
1
1
1
1
1
1
1
1
1
1
1
1
1
1
1
1
1
1
0
0
0
0
0
0
0
0
1
1
0
0
0
0
0
0
0
0
0
0
0
0
0
0
0
0
0
0
0
0
0
1
1
1
0
0
0
1
0
1
0
1
0
0
0
0
0
0
1
0
1
0
0
0
0
0
0
0
0
0
1
0
0
1
1
1
0
0
0
1
0
1
1
1
0
1
1
0
0
0
1
1
0
1
1
1
1
1
1
1
1
1
1
1
1
0
0
1
1
1
1
1
1
0
1
1
1
0
1
1
1
1
1
1
1
1
1
1
1
1
1
1
1
1
1
1
1
1
1
1
1
1
1
1
1
1
1
1
1
1
1
1
1
1
1
1
1
1
1
1
1
1
1
1
1
1
1
1
1
1
1
1
1
1
1
1
1
1
1
1
1
1
1
1
1
1
1
0
1
1
1
1
1
1
1
1
1
1
1
0
0
1
1
1
1
1
0
1
0
1
1
1
1
1
1
1
0
0
1
1
0
0
1
1
0
0
0
0
0
0
1
1
0
0
0
1
1
1
1
1
1
0
0
0
0
0
1
1
1
1
1
1
1
1
1
1
1
1
1
1
1
1
1
0
1
1
1
1
1
1
1
1
1
1
1
1
1
1
1
1
1
1
1
1
1
1
0
0
0
0
0
1
1
0
0
0
0
0
1
1
1
1
1
1
1
1
1
1
1
1
1
1
0
0
0
0
0
0
0
1
0
0
0
1
1
1
1
1
1
1
1
1
1
1
1
1
1
1
1
1
1
1
1
1
1
1
1
1
1
1
1
1
1
1
1
1
1
1
1
1
1
1
1
1
1
1
1
1
1
1
1
1
1
1
1
1
1
1
1
1
1
1
1
1
1
1
1
1
1
1
1
1
1
1
1
1
1
1
1
1
1
1
1
1
1
1
1
1
1
1
1
1
1
1
1
1
1
1
1
1
1
1
1
1
1
1
1
1
1
1
1
1
1
1
1
1
1
1
1
1
1
1
1
1
1
1
1
1
1
1
1
1
1
1
1
1
1
1
1
1
1
1
1
1
1
1
1
1
1
1
1
1
1
1
1
1
1
1
1
1
1
1
1
1
1
1
1
1
1
1
1
1
1
1
1
1
1
1
1
1
1
1
1
1
1
1
1
1
1
1
1
1
1
1
1
1
1
1
1
1
1
1
1
1
1
1
1
1
1
1
1
1
1
1
0
0
0
1
1
1
1
1
1
1
1
1
0
0
0
1
1
1
1
1
1
1
1
1
1
1
1
1
1
1
1
1
1
1
1
1
1
1
1
1
1
1
1
1
1
1
1
1
1
1
1
1
1
1
1
1
1
1
1
1
1
1
1
1
1
1
1
1
1
0
0
0
1
1
1
0
0
0
1
0
0
0
0
0
0
1
0
0
0
0
0
0
1
1
1
0
0
0
1
1
1
1
1
1
1
1
1
1
1
1
1
1
1
1
1
1
1
1
1
1
1
1
1
1
1
1
1
1
1
1
1
1
1
1
1
1
1
1
1
1
1
1
1
1
1
1
1
1
1
1
1
1
1
1
1
1
1
1
1
1
1
1
1
1
1
1
1
1
1
1
1
1
1
1
1
1
1
1
1
1
1
1
1
1
1
1
1
1
1
1
1
1
1
1
1
1
1
1
1
1
1
1
1
1
1
1
1
1
1
1
1
1
1
1
1
1
1
0
0
0
0
0
0
0
0
0
0
0
0
0
0
0
0
0
0
0
0
0
0
0
0
0
0
0
0
0
0
0
0
0
0
0
0
0
0
0
0
0
0
0
0
0
0
0
0
0
0
0
0
0
0
0
0
0
0
0
0
0
0
0
0
0
0
0
0
0
0
0
0
0
0
0
0
0
0
0
0
0
0
0
0
0
0
0
0
0
0
0
0
0
0
0
0
0
0
0
0
0
0
0
0
0
0
0
0
0
0
0
0
0
0
0
0
0
0
0
0
0
0
0
0
0
0
0
0
0
0
0
0
0
0
0
0
0
0
0
0
0
0
0
0
0
0
0
0
0
0
0
0
0
0
0
1
1
1
1
1
1
1
1
1
1
1
0
0
0
0
0
0
0
0
0
1
1
1
1
1
1
1
1
1
        </DataArray>
        <DataArray type="Float64" Name="density" format="ascii">
1002.55565713432
992.8676334822829
994.8548409343034
994.8548408750029
1000.835669534743
1001.126303094951
995.5835274647977
1002.012903267036
1002.012903402284
1005.8224300126
1005.822430159337
999.4547703346387
1005.633042298884
995.8960676788806
995.896067505019
998.7599400767082
998.7599395978293
1000.486353849891
999.4547702304963
1007.11557767058
1007.115577344437
1003.609520868873
991.5712982343144
998.9922039662755
1005.366855417041
1000.245365272219
998.1904126849118
998.1904127836048
1003.992906722196
1000.7515405396
1003.99290672006
996.5701170056963
996.5701168374161
996.6300064151908
1005.816259428901
998.0509023882075
998.0509021215989
1003.325199952348
1001.416023576865
1000
1000
1000
1003.671444336736
1002.766264911416
1004.203672721119
1001.131407579533
1005.544742005496
1005.544742188935
1006.115569788431
1000.810799903626
995.319624546369
996.6059663862429
1000.076133661258
997.7852571793223
1000.852434243001
993.5001076541686
993.5001075454012
1000.023592519829
999.3847618051968
1000.529329753038
1000.643906960673
995.5824597594519
1000.082958254746
1000.808329505447
999.709441276264
999.709440864743
1001.449599995358
1000.556947875088
998.9023745857608
1003.382416396312
1003.382416390197
1001.469244892586
996.1473811992765
996.147380812984
1002.555657092717
996.6059665805111
996.3311278349231
996.3311278060455
998.9922039292666
995.3196246572792
994.9700786376446
994.9700782600734
999.3253117266521
999.4098544469612
999.6710785674754
1000.857807538614
1000.857807496172
997.1302592418264
1000.568689590977
1000.999155443048
1003.775075565639
1000.626550243024
996.790380551308
1000.999155396747
998.6846147201344
998.6846148868
999.3142696413347
998.7965400912556
1000.643906810774
1021.925397854855
1005.618906383399
1000
986.5530662094054
986.5530664789577
1000
1000
1000
1000
1000.835669478204
1012.765546514736
1003.687709539331
1000
1000
996.294282585181
1012.765547241837
1002.626606231192
999.3847616345143
1001.336490990888
1001.176932618169
989.1542977113214
1001.336490787278
989.1542974906118
989.1542968577406
997.3234703345389
997.3234698923685
997.5053542038619
1001.336490757982
997.5053540979733
1012.765546175516
986.5530662665545
1001.176932397484
999.3232215064708
999.3232214366874
1001.884224351595
990.5467363563932
1000
1000
1002.131379475435
996.5895521002782
1001.69874420045
1001.698744298143
1000.808329509582
998.504092216275
1001.126303172168
995.8636108650148
996.1473814446191
1000.783967708037
1000.783967701815
999.7094415241045
996.6059667701056
1004.920254598424
1003.68770941407
1000.231876087558
996.5701169986568
995.5824601384643
997.2827644020186
1007.115577774992
1003.836814280549
1001.08025506328
1009.950482394542
1000.027734325686
1011.309019950497
997.6952733096161
1005.633042040765
1004.203673080426
1001.469244921115
1018.588955473421
1018.588955650488
998.1213927656009
1000.027734182576
995.8636110815687
1000.023592408032
1003.836814282803
1016.134541868077
998.1213927900069
1000.027734138412
1000.604260123122
1000.604260078133
1005.3668562687
998.7599397120601
999.9470551999048
995.5824601618498
1009.950482401645
984.680725393622
1003.971080222057
1000.529329560377
1003.609520642094
1003.609520711672
994.5763507371323
998.5040924103583
998.1676448841509
992.8676340014173
996.546947675396
996.7903806657497
997.1444460768021
995.7280795172029
1000.835669467236
997.1444460746442
1000.695952594247
1005.816259442102
1001.160723801
1000.471038470317
999.8376376459246
1001.416023309866
1000.516630763397
1005.230987809827
991.162555021528
997.844167484979
997.7101338528505
1001.883360440979
1000
1000
1005.672176866554
1000.109603059228
997.8441674941654
1000.727608026344
995.7280794342814
1002.555656979399
996.5469477372216
1000
1000
998.1676442018621
1005.366855848873
1002.76626495802
1002.626606212767
1002.131379404389
1004.970847354664
1016.134546684023
1000.250505861177
996.5895522058713
1004.587782267436
997.9961107201449
1002.626606272479
1003.687709013994
1003.344582939632
1005.230987557308
996.2942826947964
999.4098546814116
1000
1000
1011.309019888524
1000
1000.751540675579
1000
1000
1002.222544396476
1000.210915114783
1021.925397621412
1005.618906492287
1000
1000
1000
1000
1000
999.523158065443
1021.503102936183
1000.210915105866
999.5231579513121
1001.449600092548
999.5231580349138
998.2642441969131
1000
1000
1000
1000
1000
1002.222544754219
1021.503102767493
988.0155136133762
1002.145468946688
1002.145469017757
1000.810799419614
998.4148591902307
993.9560274341488
993.956027460069
1001.176921705259
1000.256483643122
1002.432815151379
1001.092514755968
1002.43281498369
999.5881527539426
1000.256483462203
999.2386622879986
1001.622013955715
999.2386623025175
999.5416798679416
999.6756482661297
999.5416798691638
1001.469244823977
1001.13140770343
1003.772462514876
999.79407607172
991.1625553046314
1000.510535846812
1001.883360577619
1001.416023575122
1002.555656935904
1006.115569726524
997.7101336848888
1002.766265026815
1000
1000
1000
1000
1000.694869402914
1000.359857338533
1000
1000
1000
1000
1000
1000.196314695688
1000
1000
1000
1000
1001.828159562752
1000.393926965614
1000
1000
1000
1000
1000.332067936932
1002.341657022405
1000.576999328113
992.6116281806967
1000
1000
1002.339105158699
1000
1000
1000
1002.296072792838
1000.486353901276
1005.61890638803
1002.234726367006
1003.880149062354
1002.377610811511
1000.146398639965
1000.267646137521
1002.299726311521
1018.50690643837
1018.049976835405
1013.182477175048
1025.004838918624
1000.567741009587
1000.271006921032
1000.545584477411
1002.234726257985
1003.88014888237
1002.37761066392
1000.146398686031
1000.267646135677
1002.299726329173
1001.779237957034
1000
1002.339104708575
1000
1000
1000
1002.296072802711
1001.002638346221
1000
1000
1000
1000.332067955191
1002.341657036591
1000.57699931732
1000.245931898468
1000
1000
1000
1000
1001.828159448699
1000.393926890092
1000
1000
1000
1000
1000
1000
1000.196314645334
1000.021601716367
991.0597845673575
1000
1000
1000
1000
1000.694869428699
1000.359857362827
1000
998.7965396642974
1005.63304216252
1001.126303140989
1000.24536473497
998.9922039888007
1003.651796070324
994.3000869467654
998.8518657159274
999.6710782665306
1000.876819485503
1007.244776896316
1000.191039279711
998.7089912211693
998.3016022461378
998.3016023280514
1000.191039698727
998.8518660209822
996.9861879861031
1000.082958471662
1000.568689450927
991.0597850834483
1000.271006917989
1000.567740975239
1025.004839202047
1013.182477355517
1018.049976634303
1018.506906397314
1021.925397802157
998.8801723228903
998.4592411951634
990.5467366019354
997.110509669234
997.1105095144039
990.5467369376223
998.4592411695205
984.6807251289266
994.5763506811901
1002.607119197756
998.7199063054144
993.5819069737936
1000.556947738295
1000.904108323236
1003.97107961718
1001.080254339419
993.5819066220671
990.0650885753499
999.9470549534309
995.0630773071675
995.0630769630088
1000.77040226253
1000.770402099824
1016.556658853833
1002.607119423694
1000.189045376436
1000.904108348437
999.3635595766017
1000.727608123128
993.5819066759648
1000.87681946272
1000.109602982384
988.2455411563751
1001.028298632571
996.9861878620287
1001.028298671453
999.0025406209762
1012.163386645628
1000.231876357484
997.5498405662165
996.6300063018043
1001.925689444952
1001.925689888689
1000
1005.672176700157
997.5498408304504
999.3142697648168
1002.261187272829
997.9992647929288
999.3731779827585
999.7940761607283
1003.67144421178
997.999264218304
994.6989159679625
999.3253118210666
1006.895369007977
999.3635596990229
991.5712981790202
998.4505192313289
1003.325199887377
996.347249657887
1000
1000.076133792038
1000
997.9961107021252
1002.261187330837
1007.232327596227
999.0025406378933
996.7903806216574
1001.239765530459
1003.775075548093
999.3731780107336
1001.239765342006
1000.695952547804
1000
998.9023747072464
998.992204028202
1004.970847293084
1005.816259624123
1000
988.2455413121324
1000.059819702591
1004.587782179316
1000.023592536203
996.3472495134808
995.0752818351964
1000.471038422017
1000.382299531031
1000.808329554071
1000
995.0752815859279
1000.38229950382
999.409854554269
1000.082958308858
1003.7724624699
1000
1000.382299696869
997.6952732172923
994.3000870142142
1000.486353896922
1003.651795960373
1000.059819737127
1000.626550225092
998.4505192059382
1000.379666215853
1001.160723885991
1000
1007.232327967436
998.2642443046541
999.6511802366944
1000.379666250092
1000
1000.510535840397
999.6511802657733
999.6511802300835
1000.742107803586
1000.742107709968
999.3008262582662
999.3008264605404
1001.070077576403
1001.070077628161
998.7341120494538
998.7341119519344
998.1488977897754
998.1488978128391
1003.775075510284
999.2011966517341
999.2011966772675
999.4258742055017
1000.565224866104
1000.384887170431
1000.384887116767
1003.86965360837
1003.869653563566
1000.550951314174
1007.115577548337
1001.453492661354
1001.453492550897
999.2922443956156
999.2922444669143
1001.884224310893
999.2221591357683
999.2221593374329
1000.411311113597
991.7800508039759
1002.138303676923
1002.138303689541
996.7903805930528
1002.30295730382
998.4311020409923
998.4311020981551
1002.302957247552
1001.983225980783
1001.983225973876
999.4258742281435
999.4258741257362
1003.348894846301
1003.517934149898
1003.51793414268
1000.626550189459
1001.856342770274
1001.969150243517
999.218530025607
1000.391957873435
1000.391957910925
999.292244569408
1005.672176597268
997.7101339314179
1000.72760802243
1001.925689514398
1002.766265024086
997.1444460897936
1003.775075575685
1001.126303150512
1000.109603064128
998.8518656444958
993.5462629288204
999.3008262636195
998.43110202861
992.8676334908145
994.8548408794434
994.854840829773
995.5835276098876
1002.012903332113
1005.822429926664
995.896067749253
1000
1000
1000.810798963596
1005.544742026122
1001.698744217735
1001.698744228184
1003.382416411669
1000
1000.023592565789
995.319624586471
997.1302595376679
1000
1000.857807588857
998.6846147893147
1001.469244831836
1000
1000.643906981122
1000
1000.808329536064
1000
1000.262637114323
1001.080254065178
997.3234695874
1000
997.9992643186979
995.582459770696
995.8636104074842
1016.134548557176
999.9470548908808
1003.971079495564
996.5469479596518
984.6807250623673
994.5763510367108
1009.950481881531
998.1676439669341
1000
1000
1000
991.0597843231959
1000.001338188537
1000.000695665249
1000
998.5040919751987
1000.529329696455
1001.883360495916
998.4592411753451
1000.191038959284
1000
1000
1000
1000
1000
1000
1000
1000
1000
1000
1000
1000
1000
1002.339105275436
1000
1002.23472651384
1003.880149164085
1002.377610964715
1018.506906277125
1018.049976577436
1013.182477501303
999.0025407254795
1000.384887160428
1000.626550254646
1000.604260016562
999.0025407447363
1000.384887191831
997.9961104259145
1002.302957311649
1007.244776891927
1001.239765613693
997.1444460602846
1005.633042155808
993.54626292647
1006.895368919758
1000.804384092828
1003.348894709834
999.2185299218493
1002.302957229214
997.9961105341765
1004.970847204227
1004.9708472718
998.8518659374934
1000.78396776774
999.3731778749431
1003.836814279093
991.1625548312685
1000.082958366123
999.5207920937437
1001.282123934524
1005.230987406365
1003.836814297621
999.2221593779532
999.3847616625021
999.3731778883958
999.3008264623403
1001.070077472308
994.6989160374457
1000.39195804033
1000.486353886276
999.0943174965781
1000.189045517464
999.9179409067934
1001.282123855286
1001.85634268802
998.8444573255346
1000
1000.001338196715
1000
1000.000695665467
1000
1000
1000
1000
1000.691029227382
1001.586200875362
1000
1000
1000.000695665167
1000.001338188772
1000
1000
1000
1000
1000
1000
1000
1000
1000
1000
1000
1000
1000
1000
1000
1000
1000
1000.804384111342
999.5207920733883
997.8441674830505
1000
1000
1000
998.9141971670064
1000
997.8441674697322
1000
1001.185897241899
1000
1000
1000
1000
1000
1000
1001.856342704104
1000
999.5207920320886
1000
1000.26263711736
1000
1000
1000
1000
1000
1000
1000
999.1724907716884
1000.262637113384
1000
1001.282123831033
999.1724905829641
1000.804384206345
1000
1000
1000
999.0413224156919
1000
1000.327891920521
1000.327891835
999.9391446471132
1000
1000.38365353839
1000.383653530872
1000
1000
1000
998.8261390824545
1000.161076270964
1000
1000.997069932732
997.7287644625667
998.6195849667694
1000.411311079554
999.6978481890857
997.7287644438087
998.3790108985376
999.2199122807057
1000.1046586258
1000.411311132039
998.9141973209885
999.8599058512109
1000
1000
1000.933059854898
1001.969150264053
999.6473597267985
1000.997069953959
999.1232951664915
999.1232951536049
1000
1001.969150242887
1001.185897238934
1000.104658635336
1000
999.2199123651102
999.8599058405582
1002.134200788855
1002.134200768252
1000.550951309769
1000.550951349864
1001.983225963947
1001.983226024155
999.2011966904988
999.2011966508771
999.9382489416571
999.9382489077786
1000.565224824168
999.6511803167588
998.7089912442373
998.7089912957921
1000.189045424977
1001.586200957271
1000.250505767665
1000.250505839616
999.5227558068437
1000.027734242021
998.7199062410361
998.1213927256391
998.121392680767
999.2184475722873
999.2184476014934
1000.199701197552
1000.199701287174
999.4464501305143
999.4464501551353
1000.85243433892
1000.407740348131
1000.407740382972
998.8734734661851
999.1026228474176
999.577026256741
1002.361654133421
1001.136255795073
1000.691029363752
1000.055559100442
999.8319397079173
999.3844448295996
999.9179410919621
1000.444118092113
999.9179408980315
1002.361654094479
1000.444118096493
1001.136255776131
1000.407740371234
1000.407740370446
999.8599058430298
999.0413223752834
1000.691029327118
999.9179409600732
999.4464501273795
1000.691029319601
997.3234699627474
1000.835669592643
999.4258741983025
1000.245365211495
999.7094411873685
993.5462628440807
1002.012903170887
1001.160723843428
1002.261187342376
1000.027734197665
1000.379666241732
999.4258741537759
1000
994.8548408299266
1000.835669531496
1002.766265043286
1007.115577364319
996.790380618478
1003.772462542379
1003.992906746914
996.5701168139478
1000.510535891218
999.314269769916
1001.449600126118
1021.503102759141
1021.925397702337
1004.587782278308
1000.626550242376
1000.556947816415
1003.775075577995
993.5001075278939
1002.222544683258
999.7094410446751
1005.618906453009
996.9861879640612
1000.076133777248
999.325311870354
996.1473808817819
996.3311278676327
1000.382299657399
999.7940760606538
1000
1000
1001.131407708457
1000.568689361236
1000
1000
1000.876819398825
986.5530662723816
1000
1000
1000
1000
1000
1000
999.6511802871573
1012.765546961451
1000
1000
1000
1001.176932527754
989.1542971394574
997.5053543785182
996.5895521421097
998.7341119964773
996.605966608211
1000
1000
1000
1000
1000
1003.86965350585
996.2942824871147
1002.626606347393
1002.131379558822
1003.687709143558
1005.633042090995
999.5231581592676
1000.382299564197
1000.742107821183
1000.742107670982
998.7341119545064
998.1488977340595
1001.336491056767
1003.869653645761
999.671078413738
1000.245364794054
1001.449600042235
1000
998.1488977843421
1000.695952616134
996.3472496241396
994.3000869550915
1003.651796002144
995.0752816207539
1000.023592593407
1000.231876260998
1000.808329541832
998.7965397588652
995.7280795527305
999.3635596414679
1003.325199841834
1001.416023346033
997.5498406177049
996.6300061935339
991.5712981331282
1000.47103853891
999.4098546059182
1001.469244877638
998.4505192459975
1004.203672965652
1000
1000
1000
1000
1000
999.5231578562784
1011.309020014626
1000
1000
1000
1000
1000
1005.816259430059
997.6952731999139
993.5001074880772
995.7280795024406
1001.176932496335
1003.65179596507
997.5053537742286
994.3000870292059
996.3472495580997
998.7965399979047
995.0752817783559
1000.231876193195
1000.695952505712
996.5895520647264
1000
1000
1000
1000
1000
1000
1000
996.331127936409
1000
1002.222544550983
1021.503102862575
1002.131379325691
996.2942826103084
988.2455413015771
996.6300064001017
1003.671444285918
998.4505192359218
998.133779064183
1007.232327889677
998.9023745345028
1003.99290682278
997.5498408026955
991.5712982169154
997.6952733095666
998.1337790802421
1002.261187242223
1011.309019918982
998.2642441960278
1002.449549709141
998.1337790556883
1000.059819706066
998.9922039530404
1007.23232775572
998.1337791057665
998.9023746121348
998.1337790812756
1002.555656997057
988.2455411993067
998.1337791253698
1007.232327778188
988.2455413100439
1002.449549703727
997.8818191866322
997.8818191575346
1006.115569772368
988.2455413432953
998.1337791140024
1007.232327745455
998.9023747057911
998.902374556294
997.8818191030101
997.8818190679443
998.1337791246527
998.992203921462