<VTKFile type="PolyData" version="1.0" byte_order="LittleEndian" header_type="UInt64">
  <PolyData>
    <Piece NumberOfPoints="1828" NumberOfVerts="1828">
      <Points>
        <DataArray type="Float64" Name="Points" NumberOfComponents="3" format="ascii">
0.122116086912785 0.1136727203840729 0.07639014660611171
0.1136727203785235 0.1221160869034086 0.07639014661287123
0.1098219511172848 0.1098219511148427 0.07647293892058095
0.09166033262773575 0.1132821361824447 0.03974497942568719
0.08731470640109075 0.1139022032284991 0.02790385712585835
0.1220357751801605 0.1049947449559318 0.07578004813611187
0.1049947449489918 0.122035775185353 0.07578004814546943
0.1334421562702322 0.1246567883826283 0.07829296132934761
0.1246567883786329 0.1334421562730254 0.07829296132312866
0.1110898809027284 0.1160505179380023 0.05288387235023735
0.1297365594191088 0.1378353350347288 0.08070408604257578
0.137835335026832 0.129736559409546 0.08070408601659243
0.1483385163633469 0.1380417177428739 0.08877107755835233
0.1380417177333967 0.1483385163546283 0.08877107754368944
0.1093066205574292 0.1206479466434941 0.07050211370303776
0.1206479466364747 0.1093066205636681 0.07050211370381818
0.1144547234295222 0.1144547234313577 0.06653679767072915
0.1034766616680594 0.111079900785299 0.0719908472473129
0.1498964963525982 0.1498964963551839 0.09305958984365532
0.1118056903088712 0.1243107214024503 0.0696419490030266
0.1243107213596995 0.1118056902861158 0.06964194899041332
0.117466347905066 0.1296707767510573 0.07050918329755239
0.1213687666777698 0.1330771174579098 0.06990919525083716
0.1360966520724397 0.1254899806854088 0.07169650377570023
0.1376243018849006 0.1478313973843293 0.08424299947974268
0.1254899807125469 0.1360966520792856 0.07169650378251866
0.08703783636583229 0.1123381411230464 0.03906086847301563
0.1186398300812657 0.1186398300881577 0.06077432876268345
0.129560186469364 0.1390878347969938 0.07301355518310383
0.1390878348189414 0.1295601864879702 0.07301355520284029
0.1330771174694391 0.1213687666709961 0.06990919524128064
0.1239099165853696 0.1071802255078323 0.06382061808643354
0.1071802255221042 0.1239099166040205 0.06382061809688921
0.1188397178628484 0.1119388334696989 0.05686859625743339
0.1119388334622372 0.1188397178640642 0.05686859626644351
0.1139849563038212 0.1306925075498104 0.0635580968525862
0.1478313974001811 0.1376243019009362 0.08424299949412423
0.1296707767598912 0.1174663479158952 0.07050918330050214
0.1373182260137591 0.1465518293557351 0.0792351756722461
0.11081209939472 0.1278860629457536 0.03330671966408956
0.1025610178880344 0.1240294741288031 0.06008631948811805
0.1142785526937467 0.1352642783926948 0.05355356426376642
0.1465518293579903 0.1373182260221743 0.07923517567600634
0.1163528305112275 0.1448564928396947 0.03906333730647705
0.1079912179712644 0.1452770224222562 0.03426088254760487
0.1161878047971403 0.1474000838747863 0.03732349739644573
0.116628947368421 0.1618131578947369 0.09552692307692309
0.1075921052631579 0.1618131578947369 0.09552692307692309
0.116628947368421 0.1618131578947369 0.08676538461538462
0.1075921052631579 0.1618131578947369 0.08676538461538462
0.116628947368421 0.1618131578947369 0.1042884615384616
0.1075921052631579 0.1618131578947369 0.1042884615384616
0.1074836515973933 0.1297911477653979 0.03025056414214232
0.1131751461655371 0.1364937553750696 0.04883204938653397
0.130692507567704 0.1139849563277493 0.06355809684508429
0.114900459589259 0.1380502000183126 0.0438507359669062
0.104677341936361 0.1419642641860892 0.04109977335829881
0.1159910041432863 0.1415364306754487 0.04073044453907269
0.1059347479116554 0.1430144030873985 0.03668448449668639
0.111879480566723 0.1214302047122924 0.006826367855664723
0.116826522258842 0.1350524631142117 0.01447789466832833
0.1144289135661742 0.1460327528803581 0.0185952868418775
0.1067212499933152 0.1312158610431051 0.06050484337614077
0.1147660595892151 0.1517425837710668 0.02275052170357758
0.1063440785323383 0.1498873201005609 0.02208520483990575
0.1155401955335767 0.1527674426665807 0.02883023017972247
0.1063973155027408 0.1453453368765166 0.01646691493267928
0.1151715662751237 0.1420472518777607 0.01636448484490027
0.114530222629755 0.1373818880192587 0.003629058768978122
0.08951842105263157 0.1618131578947369 0.11305
0.1073785861496936 0.1294660048046497 0.04193887499172973
0.1058129156959818 0.1183244327173267 0.03875007650424696
0.116628947368421 0.1618131578947369 0.07800384615384616
0.1160505179463236 0.1110898809057022 0.05288387235007657
0.1350754962094991 0.1253583366591118 0.0353286833871135
0.1253583366396842 0.1350754962035158 0.03532868334812581
0.1448564928378281 0.1163528304884345 0.03906333730281617
0.1452770225013036 0.1079912179302315 0.03426088261634611
0.1383160313772467 0.1383160313796267 0.04475285800216731
0.1439569972268162 0.0980833998130293 0.03043548254318139
0.125486569580745 0.1468953974665295 0.04251536143438403
0.1468953974393887 0.1254865695727376 0.04251536140061207
0.1512982307303791 0.1426293841654602 0.06335254675638423
0.1426293841694757 0.1512982307270631 0.06335254676163983
0.1477847425889108 0.1348217380768681 0.04999989826807855
0.1348217380717281 0.1477847425871917 0.04999989826908753
0.1474000838922367 0.1161878047717791 0.03732349741815044
0.1511525002502377 0.1511525002537266 0.07540917479111597
0.1618131578947369 0.1075921052631579 0.08676538461538462
0.1618131578947369 0.116628947368421 0.08676538461538462
0.1618131578947369 0.1075921052631579 0.09552692307692309
0.1618131578947369 0.116628947368421 0.09552692307692309
0.1618131578947369 0.1075921052631579 0.1042884615384616
0.1618131578947369 0.116628947368421 0.1042884615384616
0.1511773686953634 0.1426662863104741 0.05672631946537243
0.1520387017304351 0.15203870172936 0.06730893258669489
0.1075921052631579 0.1618131578947369 0.07800384615384616
0.1426662863261943 0.1511773686807818 0.05672631947256606
0.1256657894736842 0.1618131578947369 0.09552692307692309
0.1527763157894737 0.1618131578947369 0.08676538461538462
0.1437394736842105 0.1618131578947369 0.08676538461538462
0.116628947368421 0.1618131578947369 0.0692423076923077
0.1075921052631579 0.1618131578947369 0.0692423076923077
0.116628947368421 0.1618131578947369 0.06048076923076924
0.1075921052631579 0.1618131578947369 0.06048076923076924
0.116628947368421 0.1618131578947369 0.05171923076923078
0.1347026315789474 0.1618131578947369 0.08676538461538462
0.1256657894736842 0.1618131578947369 0.08676538461538462
0.1075921052631579 0.1618131578947369 0.05171923076923078
0.116628947368421 0.1618131578947369 0.04295769230769231
0.1618131578947369 0.1256657894736842 0.08676538461538462
0.1618131578947369 0.1347026315789474 0.08676538461538462
0.1075921052631579 0.1618131578947369 0.04295769230769231
0.1618131578947369 0.1437394736842105 0.08676538461538462
0.116628947368421 0.1618131578947369 0.03419615384615385
0.1618131578947369 0.1527763157894737 0.08676538461538462
0.1075921052631579 0.1618131578947369 0.03419615384615385
0.1068425019270796 0.1508959386052529 0.02802667290026369
0.1618131578947369 0.1618131578947369 0.08676538461538462
0.116628947368421 0.1618131578947369 0.02543461538461539
0.1075921052631579 0.1618131578947369 0.02543461538461539
0.1118475762388766 0.1310615729064947 0.01710917584373339
0.116628947368421 0.1618131578947369 0.01667307692307693
0.1159114506299551 0.1502570351179725 0.03478070191921509
0.1075921052631579 0.1618131578947369 0.01667307692307693
0.1098541351004702 0.1352032058215498 0.05592325926664593
0.1099213829107808 0.1280169718170224 0.02322208680664525
0.116628947368421 0.1618131578947369 0.007911538461538463
0.1075921052631579 0.1618131578947369 0.007911538461538463
0.1149862913557815 0.1411883226502805 0.01050154796035254
0.1618131578947369 0.1527763157894737 0.11305
0.1079150786524822 0.1478526742228029 0.03218018381809973
0.1095090724160602 0.1336642110520145 0.05841314821124363
0.1079833036979678 0.1299430727963229 0.02702386295644021
0.1618131578947369 0.1256657894736842 0.09552692307692309
0.1618131578947369 0.1347026315789474 0.09552692307692309
0.1618131578947369 0.1437394736842105 0.09552692307692309
0.1618131578947369 0.1527763157894737 0.09552692307692309
0.1618131578947369 0.1618131578947369 0.09552692307692309
0.1618131578947369 0.1256657894736842 0.1042884615384616
0.1618131578947369 0.1347026315789474 0.1042884615384616
0.1618131578947369 0.1437394736842105 0.1042884615384616
0.1618131578947369 0.1527763157894737 0.1042884615384616
0.1618131578947369 0.1618131578947369 0.1042884615384616
0.1527763157894737 0.1618131578947369 0.09552692307692309
0.1506066505502688 0.09850102862441069 0.02380192639756822
0.1442235167081204 0.09804005434614278 0.01546770979095871
0.1527763157894737 0.1618131578947369 0.1042884615384616
0.1437394736842105 0.1618131578947369 0.09552692307692309
0.1347026315789474 0.1618131578947369 0.09552692307692309
0.1437394736842105 0.1618131578947369 0.1042884615384616
0.1412853434898624 0.1412853435056965 0.09614471500435626
0.1618131578947369 0.09855526315789473 0.07800384615384616
0.1347026315789474 0.1618131578947369 0.1042884615384616
0.1256657894736842 0.1618131578947369 0.1042884615384616
0.1618131578947369 0.09855526315789473 0.0692423076923077
0.1618131578947369 0.09855526315789473 0.06048076923076924
0.1618131578947369 0.09855526315789473 0.05171923076923078
0.1618131578947369 0.09855526315789473 0.04295769230769231
0.1618131578947369 0.09855526315789473 0.03419615384615385
0.1618131578947369 0.09855526315789473 0.02543461538461539
0.1156078291393324 0.09809406011572236 0.04026325721513002
0.1158197057509682 0.09736748604082683 0.03041082798666342
0.1393056966260982 0.1037314905590974 0.0500876900319824
0.1618131578947369 0.09855526315789473 0.01667307692307693
0.1618131578947369 0.09855526315789473 0.007911538461538463
0.1390067355355425 0.09935530068135343 0.007352537936818003
0.1418264494175802 0.09738913694346998 0.01186059832129107
[...]
      <PointData>
        <DataArray type="UInt64" Name="type" format="ascii">
1
1
1
1
1
1
1
1
1
1
1
1
1
1
1
1
1
1
1
1
1
1
1
1
1
1
1
1
1
1
1
1
1
1
1
1
1
1
1
1
1
1
1
1
1
1
0
0
0
0
0
0
1
1
1
1
1
1
1
1
1
1
1
1
1
1
1
1
1
0
1
1
0
1
1
1
1
1
1
1
1
1
1
1
1
1
1
1
0
0
0
0
0
0
1
1
0
1
0
0
0
0
0
0
0
0
0
0
0
0
0
0
0
0
0
0
0
1
0
0
0
1
0
1
0
1
1
0
0
1
0
1
1
1
0
0
0
0
0
0
0
0
0
0
0
1
1
0
0
0
0
1
0
0
0
0
0
0
0
0
0
1
1
1
0
0
1
1
1
1
1
1
1
1
1
1
1
1
1
1
1
1
1
1
1
1
1
1
1
1
1
1
1
1
1
1
1
1
1
1
1
1
1
1
1
1
0
0
0
0
0
0
0
0
0
0
0
0
0
0
0
0
0
0
0
0
0
0
0
0
0
0
0
0
0
0
0
0
0
0
0
0
0
0
0
0
0
0
0
0
1
0
0
0
0
0
0
1
1
1
1
0
0
0
0
0
0
0
0
0
0
0
0
0
0
0
0
0
0
0
0
0
0
0
0
1
1
1
1
1
1
1
1
1
1
1
1
1
1
1
1
0
0
0
0
0
0
0
0
0
0
0
0
0
0
0
0
0
0
0
0
0
0
0
0
0
1
1
1
1
1
1
1
1
1
1
1
1
1
1
1
1
1
1
1
1
1
1
1
1
1
1
1
1
1
1
1
1
1
1
1
1
1
1
1
1
1
1
1
1
1
1
1
1
1
1
1
1
1
0
1
1
1
1
1
1
1
1
1
1
1
1
1
1
1
1
1
1
1
1
1
1
1
1
1
1
1
1
1
1
1
1
1
1
1
1
1
1
1
1
1
1
1
1
1
1
1
1
1
1
1
1
1
1
1
1
1
1
1
1
1
1
1
1
1
1
1
1
1
1
1
1
1
1
1
1
1
1
1
1
1
1
1
1
1
1
1
1
1
1
1
1
1
1
1
1
1
1
1
1
1
1
1
1
1
1
1
1
0
0
1
1
1
1
1
1
0
1
0
1
1
1
1
1
1
1
1
0
0
1
1
0
0
1
1
0
0
1
0
0
0
0
0
0
0
1
1
1
0
0
1
0
0
1
0
1
1
1
1
1
0
1
1
0
1
0
0
1
0
0
0
0
0
1
1
1
1
1
1
1
0
1
1
1
0
0
1
1
1
1
1
1
1
1
1
1
1
1
1
1
1
1
1
1
0
1
0
1
1
0
0
1
1
1
1
1
1
1
1
1
1
1
1
1
1
1
1
1
1
1
1
1
1
0
0
0
1
0
1
1
1
0
0
0
0
0
0
1
0
1
0
0
1
0
0
0
1
0
0
0
1
0
0
0
0
0
0
1
1
0
1
1
1
1
1
1
1
1
1
1
1
1
0
0
0
0
0
0
0
1
0
0
0
1
1
1
1
1
1
1
1
1
1
1
1
1
1
1
1
0
1
1
1
1
1
1
1
1
1
1
1
1
1
1
1
1
1
1
1
1
1
1
1
1
1
1
1
1
1
1
1
1
1
1
1
1
1
1
1
1
1
1
1
1
1
1
1
1
1
1
1
1
1
1
1
1
1
1
1
1
1
1
1
1
1
1
1
1
1
1
1
1
1
1
1
1
1
1
1
1
1
1
1
1
1
1
1
1
1
1
1
1
1
1
1
1
1
1
1
1
1
1
1
1
1
1
1
1
1
1
1
1
1
1
1
1
1
1
1
1
1
1
1
1
1
1
1
1
1
1
1
1
1
1
1
1
1
1
1
1
0
0
0
0
1
1
1
1
1
1
1
1
1
1
1
0
0
0
0
0
1
1
0
0
0
0
0
0
0
0
0
0
0
0
0
0
0
0
0
0
1
1
1
1
1
1
1
1
1
1
1
1
1
1
1
1
1
1
1
0
0
0
0
0
0
0
0
0
0
0
0
0
0
0
0
0
0
1
1
1
1
1
1
1
1
1
1
1
1
1
1
1
1
1
1
1
1
1
1
1
1
1
1
1
1
1
1
1
1
1
1
1
1
1
1
1
1
1
1
1
1
1
1
1
1
1
1
1
1
1
1
1
1
1
1
1
1
1
1
1
1
1
1
1
1
1
1
1
1
1
1
1
1
1
1
1
1
1
1
1
1
1
1
1
1
1
1
1
1
1
1
1
1
1
1
1
1
1
1
1
1
1
1
1
1
1
1
1
1
1
1
1
1
1
1
1
1
1
1
1
1
1
1
1
1
1
1
1
1
1
1
1
1
1
1
1
1
1
1
1
0
0
0
0
0
0
0
0
0
0
0
0
0
0
0
0
0
0
0
0
0
0
1
0
0
0
0
0
1
1
1
1
1
1
1
1
1
1
1
1
1
1
0
0
0
1
1
1
1
1
1
1
1
1
1
1
1
1
1
1
1
1
1
1
1
1
1
1
1
1
1
1
1
1
1
1
1
1
1
1
1
1
1
1
1
1
1
1
1
1
1
1
1
1
1
1
1
1
1
1
1
1
1
1
1
1
1
1
1
1
1
1
1
1
1
1
1
1
1
1
1
1
1
1
1
1
1
1
1
1
1
1
1
1
1
1
1
1
1
1
1
1
1
1
1
1
1
1
1
1
1
1
1
1
1
1
1
1
1
1
1
1
1
1
1
1
1
1
1
1
1
1
1
1
1
1
1
1
1
1
1
1
1
1
1
1
1
1
1
1
1
1
1
1
1
1
1
1
1
1
1
0
1
0
0
0
0
0
0
0
0
1
1
0
1
0
1
1
0
0
0
0
0
0
1
1
1
0
1
1
0
1
1
1
1
1
1
0
1
1
1
1
1
1
1
1
1
1
1
1
1
1
1
1
1
1
1
1
1
1
1
1
1
1
1
1
1
1
1
1
1
1
1
1
1
1
1
1
1
1
1
1
1
1
1
1
1
1
1
1
1
1
1
0
1
1
1
1
0
1
1
0
1
0
1
1
1
1
1
1
1
1
1
1
1
1
1
1
1
1
1
0
0
1
1
1
0
1
1
1
0
0
1
1
1
1
1
1
1
1
1
1
1
1
1
1
1
1
1
1
1
1
1
1
1
1
1
1
1
1
1
1
1
1
1
1
1
1
1
1
1
1
1
1
1
1
1
1
1
1
1
1
1
1
1
1
1
1
1
1
1
1
1
1
1
1
1
1
1
1
1
1
1
1
1
1
1
1
1
1
1
1
1
1
1
1
1
1
1
1
1
1
1
1
1
1
1
1
1
1
1
1
1
1
1
1
1
1
1
1
1
1
1
1
1
1
1
1
1
1
1
1
1
1
1
1
1
1
1
1
1
1
1
1
1
1
1
1
1
1
1
1
1
1
1
1
1
1
0
0
1
1
1
1
0
1
1
1
1
1
1
1
1
1
0
0
1
0
0
0
0
0
0
0
0
0
0
0
0
0
0
0
1
0
1
0
1
1
0
0
0
0
0
1
1
1
1
1
1
1
1
1
1
1
1
1
1
1
1
1
1
1
1
1
1
1
1
1
1
1
1
1
1
1
1
1
1
1
1
1
1
1
1
1
1
1
1
1
0
0
0
1
0
1
0
1
1
1
0
1
1
0
0
0
0
0
0
0
0
0
0
0
1
0
0
1
1
1
1
1
1
1
1
0
0
0
0
0
0
0
0
0
0
0
0
0
0
0
0
0
0
0
0
0
0
0
0
0
0
0
0
0
0
0
0
0
0
0
0
0
0
0
0
0
0
0
0
0
0
0
0
0
0
0
0
0
0
0
0
0
0
0
0
0
0
0
0
0
0
0
0
0
0
0
0
0
0
0
0
0
0
0
0
0
0
0
0
0
0
0
0
0
0
0
0
0
0
0
0
0
0
0
0
0
0
0
0
0
0
0
0
0
0
0
0
0
0
0
0
0
0
0
0
0
0
0
0
0
0
0
0
0
0
0
0
0
0
0
0
0
0
0
0
0
0
0
0
0
0
0
0
0
0
0
0
0
0
0
0
0
0
0
0
0
0
0
0
0
0
0
0
0
0
0
0
0
0
0
        </DataArray>
        <DataArray type="Float64" Name="density" format="ascii">
1000.407740339896
1000.407740382558
1000.852434274948
1001.160723843428
1002.261187342376
1001.336491001695
1001.336490727227
999.4464501415204
999.4464501295377
1001.698744190942
1000.199701203377
1000.199701204847
999.2184475347303
999.2184475159818
998.1213927829125
998.1213928004529
998.7199062922258
1000.027734197665
999.5227557675535
997.8441675181712
997.8441674973034
1000.250505860499
1000.189045506538
998.7089912214893
1001.586200758323
998.7089913085911
1000.379666241732
1000.565224862443
999.9382489274544
999.938248895527
1000.189045369619
999.2011966324084
999.2011966654969
1001.983226004478
1001.983225992662
1000.550951283452
1001.586200761244
1000.250505799561
1002.134200714784
997.9961105674088
999.4258741537759
1000.783967731263
1002.134200725183
1000.1096031217
1005.672176900169
1001.883360574892
1000
1000
1000.262637117531
1000
1000
1000
991.1625551573355
1001.239765418991
1000.550951275763
999.2922445127095
993.5462629366583
1000.391958064915
1000.7276078428
995.5824601926673
1016.134543898369
1003.971080028895
1001.969150257095
984.6807252597023
998.5040920480718
1000.529329545233
996.5469478519821
998.1676446162285
1000.191039332917
1000
999.2221591332026
1000.384887161201
1000.000695665793
1001.698744238222
1001.925689419406
1001.925689861157
1000.109603076599
1005.672176666957
1003.344583006048
1005.816259725464
997.7101337581685
997.7101338993778
1000.997069938469
1000.997069925204
1001.453492444661
1001.453492506029
1001.883360483571
999.6978482290519
1000
1000.262637117395
1000
1000
1000
1000
1001.028298567193
998.826139062861
1000
1001.028298616333
1000
1000
1000
1000
1000
1000
1000
1000
1000
1000
1000
1000
1000
1000
1000
1000
1000
1000
1000
998.6846147803551
1000
1002.339104808762
1000
1000.857807351766
1003.880148917938
1003.382416402187
1002.23472643247
999.384761695341
1005.5447421848
1018.049976719368
1018.506906386324
1001.08025481638
1000
1005.822430180952
1000.804384099528
992.867634114587
1000
1000
1000
1000
1000
1000
1000
1000
1000
1000
1000
986.5530662748855
989.1542975033279
1000
1000
1000
1000
999.3844449122782
1000
1000
1000
1000
1000
1000
1000
1000
1000
1003.775075589735
1000.023592582167
1000.751540437695
1005.618906423263
1021.925397819758
996.6059668256713
1002.626606395349
1003.687709376888
996.5701169945903
999.300826509116
1001.969150185064
1000.411311069545
999.2221593703994
1000.245365246965
1000.804384047725
998.7965400782457
1003.348894718015
1000.076133690735
998.8734735562373
1005.633042336913
999.373177933915
999.3847615947064
1003.836814288473
1001.469244971725
1001.131407621128
1000.568689511147
999.4098544297032
1001.282123960401
999.9179408960291
998.8518659444602
991.1625547046528
1006.895368865913
1004.970847220373
1000.783967818632
1000.808329478018
1002.432814931167
1002.432815027831
1000.256483589543
1000.256483735968
990.5467366400831
990.5467363543183
998.4592412377979
998.4592412231083
998.1676437767698
1001.09251474159
1013.182477332322
1025.004838998338
1000.567740798656
1000.271006889382
1000
1000
1000
1000
1000.001338197221
1000
1000
1000
1000
1000
1000
1000.359857355608
1000.694869403295
1000
1000.02160176281
1000.196314740841
1000
1000
1002.377610687715
1000
1000.393926941849
1001.828159358502
1000
1000.146398514179
1000.245932000027
1000.576999380611
1002.341657155
1000.332068004746
1001.002638281594
1002.296072774756
1000
1000
1001.779237908746
1002.299726124684
1000.267646109854
1000.146398452125
1000.545584434461
1000.271006876216
1000.56774074792
1025.004839282181
1000.810798803762
1000.2676461025
1002.299726182463
1000
1000
1000
1002.296072811829
1001.080253984368
1000.770402332603
1000.770402171638
993.5819064024267
1000
1000.332067987484
1002.341657071726
1000.576999352236
1000
1000
1001.828159260229
1000.393926870595
1000
1000
1000
1000.196314692242
1000
1000
1000.694869445603
1000.359857380726
1000
1000
1000
1000
1000.001338197304
1000
1000
1000
999.6756482791275
999.5416797854645
999.5416798640072
998.4148591095234
1001.62201406298
999.2386622524283
999.0025407507057
999.238662260254
1000.810799426087
998.8801723821171
999.588152588562
997.1105099848205
997.1105101758175
1000.191038925892
1005.366855612024
991.0597842977861
1018.506906281851
1018.049976517987
1013.182477507095
1002.234726638707
1003.880149231015
1002.3776109776
1000
1002.33910544563
1000
1000
1000
1000
1000
1000
1000
1000
1000
1000
1000
1000
1000
1000
1000
1000
1000.000695665633
991.0597848657991
988.0155137216656
1002.607118936222
1002.607119160422
993.9560271067994
993.9560271599989
1016.55665873
992.6116280961447
996.54694786748
1004.203672837556
999.9470549315814
999.9470550855025
995.5824596285015
1001.176921795078
1003.971079347861
995.0630772370594
1002.145469236526
1002.14546913253
995.063076955523
990.0650883772087
1016.134549674483
1003.609520664776
1000.529329802621
1009.950481878613
1009.950482190909
999.3008262632749
1003.32519989109
999.5231580693377
1000.027734349758
994.57635123137
984.6807250150126
998.0509019791018
995.8636106446448
998.0509016985952
1018.588956097811
994.5763512666551
1018.588956370917
1004.92025424642
1000.210915041846
1000.210915081943
1000.904108575565
995.8636102654518
1000.904108741027
998.5040921153407
999.3232215042894
999.3232213995065
999.8376375901493
997.3234699704242
997.3234694315274
1001.416023525297
1001.126303150847
997.2827646251644
1012.765546030929
1000
1000.643906790288
1000.643907066208
998.6846147309155
1000.999155376742
1000.999155349225
1000.857807422667
997.1302596506011
1000.161076276987
999.5207921021965
994.9700783705543
994.9700780045184
995.3196246175759
995.3196244687338
996.1473811436124
1003.382416438482
1001.884224280699
1001.856342726046
997.9961103332641
997.7852574004899
1000.604260040538
1005.544741979723
999.2922445916283
993.546262959206
999.7094414842384
998.1904126083948
998.1904125907123
999.0025408009178
997.9992641437029
1000.384887265621
1000.626550299394
999.6473597268653
1007.115577589845
1001.449600024002
998.7599400782564
998.7599396220972
995.8960677621941
995.896067541499
1005.822429959793
1002.012903123978
1002.012903256119
995.5835276195845
1000.835669407163
994.8548408299266
994.8548408212201
992.8676334327638
1000.411311049984
999.6710785019914
997.7287644314816
997.7287644419747
998.301602068841
999.1232952146605
998.3016021302747
999.1232952284983
999.4547701792377
997.1444460248864
1002.766264979518
997.1444460924079
1001.239765589307
1000.383653636265
998.4311019660897
1003.836814267441
999.4547702448795
1000.383653642962
1000.327891940785
1000.486353911348
1001.07007742101
1000.327891854676
1000.055559132021
998.8518656121925
998.9141973938661
1000.60426004867
998.9141972938708
999.5770262130924
1001.185897316148
1012.163387074288
998.6195849583866
999.3731779293176
1004.97084717452
998.4311019718133
1007.244776881016
1000.727608068418
1000.391958073343
1001.070077429567
994.6989161086395
1001.856342694015
1002.302957287767
999.5207920418495
1001.185897298529
999.1724905493667
991.780051005895
1002.302957342663
1001.282123880059
999.1724906990166
1000.51663066755
1005.230987344798
996.7903805697523
1005.230987653644
997.9992648055457
1000.835669531496
1002.766265043286
1007.115577364319
996.790380618478
1003.772462542379
1003.992906746914
996.5701168139478
1000.510535891218
999.314269769916
1001.449600126118
1021.503102759141
1021.925397702337
1004.587782278308
1000.626550242376
1000.556947816415
1003.775075577995
993.5819068117933
993.5001075278939
1002.222544683258
999.7094410446751
1005.618906453009
996.9861879640612
1000.076133777248
999.325311870354
996.1473808817819
996.3311278676327
998.8444573789177
1000.382299657399
999.7940760606538
1000
1000
1001.131407708457
1000.568689361236
1000
1000
1000.876819398825
986.5530662723816
1000
1000
999.1026229129563
1000
1000
1000
1000
1000
1000
1000
999.6511802871573
1000.382299741352
1012.765546961451
1000
1000
999.6511803707663
1000
1000
999.2199123087935
1000
1001.176932527754
999.8319397585699
989.1542971394574
1000.444118120259
997.5053543785182
1000
996.5895521421097
998.7341119964773
1000
996.605966608211
1000
1000
1000.691029310652
1000
1000
1000
1000
1000
1001.136255810428
1002.361654121349
999.0413223114793
999.9179410011978
998.3790109369041
1003.86965350585
996.2942824871147
1000
1002.626606347393
1002.131379558822
1003.687709143558
1000
1000
1001.126303148508
999.2199123163894
1005.633042090995
999.5231581592676
1000.486353906276
1000.382299564197
1003.609520773921
1005.36685585302
1000.742107821183
1000.742107670982
998.7341119545064
998.1488977340595
1001.336491056767
1003.869653645761
999.671078413738
1000.245364794054
1000.751540503397
1000.933059945669
1000
1001.449600042235
1000
998.7965398949522
1000.104658603735
1000
1000
998.1488977843421
999.8599058542034
999.4258741182754
1000.104658677248
1000.695952616134
996.3472496241396
994.3000869550915
1003.651796002144
995.0752816207539
1000.023592593407
1000.231876260998
1000.808329541832
998.7965397588652
995.7280795527305
999.3635596414679
1003.325199841834
1001.416023346033
997.5498406177049
996.6300061935339
991.5712981331282
1000.47103853891
999.8599058540819
1000
1000
1000
999.4098546059182
1000
1001.469244877638
998.4505192459975
1004.203672965652
1000
1000
1000
1000
1000
1000
999.939144609114
1000
1000.691029304561
1000
1000
999.0943175250112
1000
1000
1000
999.5231578562784
1000
1000
1000
1011.309020014626
1000
1000
1000
1000
1000
1000
1005.816259430059
997.6952731999139
1000
993.5001074880772
995.7280795024406
1001.176932496335
1003.65179596507
997.5053537742286
994.3000870292059
996.3472495580997
998.7965399979047
995.0752817783559
1000.231876193195
1000.695952505712
996.5895520647264
1000
1000
1000
1000
1000
1000
1000
996.331127936409
1000
1002.222544550983
1021.503102862575
1002.131379325691
996.2942826103084
988.2455413015771
996.6300064001017
1003.671444285918
998.4505192359218
998.133779064183
1007.232327889677
998.9023745345028
1003.99290682278
997.5498408026955
991.5712982169154
997.6952733095666
998.1337790802421
1002.261187242223
1011.309019918982
1000
998.2642441960278
1002.449549709141
998.1337790556883
1000.059819706066
998.9922039530404
1007.23232775572
998.1337791057665
998.9023746121348
998.1337790812756
1002.555656997057
988.2455411993067
998.1337791253698
1007.232327778188
988.2455413100439
1002.449549703727
997.8818191866322
997.8818191575346
1006.115569772368
988.2455413432953
998.1337791140024
1007.232327745455
998.9023747057911
998.902374556294
997.8818191030101
997.8818190679443
998.1337791246527
998.992203921462
1001.578482174915
1001.578482175873
1001.578482201989
1001.57848217914
1001.578482161561
1001.578482167092
1001.578482174279
998.2642442851146
998.2642442733753
998.2642442100894
1003.671444296367
1003.671444431395
1003.671444317135
1002.555657021829
1001.578482156257
1002.449549699462
1002.449549725515
1000.059819621524
1000.059819640651
1000.059819689101
1002.449549690199
999.3635595303238
1002.449549698845
1003.517934107095
1003.517934080521
1003.517934116261
1003.51793408915
1002.138303683385
1003.32519985024
1000.471038311203
1000.379666224088
1001.160723834018
1000.082958351896
1000.082958197994
999.6710785141436
999.2185298854275
1004.203672827294
1000.8768195846
1003.772462494028
1000.751540595021
1000.510535864664
1000.56868959257
999.7940761681492
1001.131407564909
1004.587782227447
999.3253116933723
996.9861878390818
999.314269678056
1000.076133716756
1000.556947806882
999.3253117473412
996.986187992053
997.5498406559367
999.79407614832
1001.160723806005
1002.261187274115
999.3142697737501
1000.510535805181
998.4505193728007
1000.37966619159
999.3635595349879
1003.65179599606
999.3253117861118
1004.587782296421
1000.379666227191
995.7280794877216
996.2942826435025
1000.568689446845
995.0752816510392
1000.751540617453
1004.203672958189
996.3472495923572
999.6710783012467
1003.325199813375
1003.772462477073
1003.772462486188
994.3000869790551
1000.231876326653
993.5462628969602
1003.651795941655
994.3000870044698
996.986187904374
1000.876819472311
1000.727608078397
1005.816259589247
1000.471038355834
1000.695952518565
996.6300064112867
991.57129823297
1000.876819519261
1000.471038322408
995.7280794298742
999.3635594791376
1000.556947779289
1011.309020050134
1011.309020095103
997.6952731317351
997.6952732929066
997.5498407638175
999.7940761564474
1000.510535810031
1004.587782206579
998.4505193213972
1002.26118729199
996.3472495402505
995.0752817725943
1000.695952595711
1001.160723852224
996.2942826167625
998.5040923284536
1003.687709177934
996.546947404535
1002.626606123273
1000
1000
1000
1000
991.5712982339859
1000.23187615608
1000.556947807113
999.3142697200068
1003.992906692641
1003.992906765778
996.5701170599099
993.5001074684061
1003.609520259267
993.5001075188586
996.6059665877443
1000
1000
1005.618906451192
1021.92539772205
1000
996.5895520477872
1002.13137954259
1000
1000
1000
1000
1000
1000
1000
1002.222544316109
1021.503102848352
1000
1000
1000
1000
1000
1000
1000
1002.222544475229
1021.503102806497
1002.131379391942
996.5895519618399
996.3311278840831
996.3311280609302
997.5053543002286
997.5053536697898
989.1542973218091
1001.176932352193
1001.176932448847
986.5530664423667
1003.86965357413
998.1488977982616
998.1488977911166
998.7341120066975
998.7341120001548
1000.742107755201
1000.742107817862
996.6300062892324
1003.869653614195
1000
1000
1000
1000
1000
1000
1000
1000
1000
1000
1000
1000
1000
1000
1000
1000
1000
1000
1002.449549709001
1002.449549727465
1002.55565713432
992.8676334822829
994.8548409343034
994.8548408750029
1000.835669534743
1001.126303094951
995.5835274647977
1002.012903267036
1002.012903402284
1005.8224300126
1005.633042298884
995.8960676788806
998.7599395978293
1000.486353849891
999.4547702304963
1007.11557767058
1007.115577344437
991.5712982343144
998.9922039662755
998.1904126849118
1003.992906722196
1003.99290672006
996.5701170056963
998.0509021215989
1003.671444336736
1002.766264911416
1005.544742005496
1005.544742188935
1006.115569788431
995.319624546369
1000.852434243001
1000.023592519829
999.3847618051968
1000.529329753038
1000.643906960673
995.5824597594519
1000.082958254746
1000.808329505447
999.709441276264
999.709440864743
998.9023745857608
1003.382416396312
1001.469244892586
996.1473811992765
1002.555657092717
996.6059665805111
998.9922039292666
995.3196246572792
994.9700782600734
1000.857807538614
1000.857807496172
997.1302592418264
1003.775075565639
1000.626550243024
996.790380551308
998.6846148868
999.3142696413347
986.5530662094054
1012.765546514736
1012.765547241837
999.3847616345143
1001.336490990888
1001.336490787278
989.1542974906118
997.3234703345389
997.3234698923685
1001.336490757982
999.3232215064708
1001.884224351595
1001.69874420045
1001.698744298143
1000.808329509582
998.504092216275
1001.126303172168
995.8636108650148
1000.783967708037
1000.783967701815
1003.68770941407
1000.231876087558
995.5824601384643
1007.115577774992
1003.836814280549
1009.950482394542
1000.027734325686
1005.633042040765
1001.469244921115
1018.588955650488
998.1213927656009
1000.027734182576
1000.023592408032
1003.836814282803
1016.134541868077
998.1213927900069
1000.027734138412
1000.604260078133
995.5824601618498
1003.609520642094
992.8676340014173
996.7903806657497
997.1444460768021
995.7280795172029
1000.835669467236
997.1444460746442
1000.695952594247
1001.160723801
1000.516630763397
1005.230987809827
991.162555021528
997.844167484979
997.7101338528505
1001.883360440979
997.8441674941654
995.7280794342814
1002.555656979399
996.5469477372216
998.1676442018621
1005.366855848873
1002.76626495802
1002.626606212767
1004.970847354664
1016.134546684023
1004.587782267436
997.9961107201449
1005.230987557308
999.4098546814116
999.523158065443
999.5231579513121
1001.449600092548
999.5231580349138
998.2642441969131
1000.810799419614
993.9560274341488
1001.469244823977
1003.772462514876
999.79407607172
991.1625553046314
1000.510535846812
1001.416023575122
1002.555656935904
1006.115569726524
1002.766265026815
1000
1000
1000
1000
1000
1000
1000
1000
1000
1000
1000
1000
1000
1000
1000
1000
1000.332067936932
1000
1000
1002.339105158699
1000
1000
1000.486353901276
1005.61890638803
1002.234726367006
1003.880149062354
1002.377610811511