<VTKFile type="PolyData" version="1.0" byte_order="LittleEndian" header_type="UInt64">
  <PolyData>
    <Piece NumberOfPoints="3035" NumberOfVerts="3035">
      <Points>
        <DataArray type="Float64" Name="Points" NumberOfComponents="3" format="ascii">
0.03526846470076816 0.01762422815531534 0.04457227846058568
0.03692396288460648 0.02568366001829549 0.03358955111981617
0.08935593001855502 0.07259697927698995 0.04361282205896285
0.08064406997964384 0.07259697927704675 0.04361282205747489
0.08932413789079591 0.06362333135134672 0.04599919984756881
0.08067586210738145 0.06362333135038195 0.04599919984721528
0.0889974281197143 0.05545017963912148 0.04944668410767193
0.08100257187972817 0.05545017963815205 0.04944668410601339
0.08913499337978063 0.04603468218892658 0.05882309079191548
0.08086500661964252 0.04603468218851178 0.05882309079090993
0.07279498472714202 0.04630588364984307 0.05867994793455984
0.08965433796168536 0.07346202647663912 0.03376140957806769
0.08034566203663771 0.07346202647657256 0.03376140957632535
0.08979686828040807 0.0633090086216568 0.03603440590029999
0.0802031317173327 0.06330900862053598 0.03603440589954067
0.08926021580106037 0.05623671587755548 0.04019883397033248
0.08073978419785474 0.05623671587637982 0.04019883397291996
0.08044467526552253 0.045567952592595 0.05106310975184772
0.07324099404138094 0.04597026802006921 0.05062559271094379
0.0645069899368728 0.04635478871224748 0.05283494151924267
0.1136723875999628 0.03984847915975975 0.08507476024969826
0.1301515208378164 0.05632761239887703 0.08507476025017915
0.08889069176518209 0.0558968351604777 0.02958032666340969
0.0811093082358027 0.05589683516140689 0.02958032666387664
0.08078624820225365 0.04576667428927217 0.03989356535920915
0.07295654532305827 0.04569853892736229 0.0405650214940827
0.06404665541915251 0.04612151462646499 0.04245906648792743
0.08954445808201562 0.02729288667603434 0.0715467652893048
0.1255500597830477 0.0185374368957119 0.09486237116039652
0.1514625631051935 0.04444994021736756 0.094862371161054
0.1223350767743013 0.05681371017080638 0.08276455439135333
0.1131862898284113 0.04766492322397336 0.08276455439120337
0.1071571875079794 0.02901794008150245 0.08823487984230345
0.1409820599181251 0.06284281248989451 0.08823487984431749
0.08955532473351931 0.04556795259091126 0.05106310975314545
0.08084331634810396 0.03873127785456196 0.08258412301133657
0.08915668365307619 0.03873127785441455 0.08258412301344778
0.09689920078105616 0.06214777993232953 0.08020218785856571
0.0731007992187367 0.06214777993411615 0.08020218785961331
0.1078522200649268 0.07310079921843009 0.08020218786150607
0.07241693006942786 0.039058354635064 0.0822154210908678
0.08044482913257096 0.02651120319124242 0.04797988753832354
0.07228648199331886 0.03729322748570313 0.03809620571575738
0.08933975242000199 0.03718277371362565 0.0550777646857621
0.06379682691438476 0.03725254699151298 0.03967277014362566
0.08056004427989082 0.01802931902872169 0.06161956191640655
0.0560541969483842 0.038338830404355 0.02595395441237331
0.07148884230395344 0.01777091647447261 0.0627210083290934
0.07177686697448796 0.02636499196004174 0.04885808643302526
0.08154289530561293 0.02322251250418619 0.01697641223932678
0.0809805546572343 0.0276476382888555 0.02268174078864506
0.05571469677229439 0.03760334309985662 0.0422843782022873
0.09758306993071922 0.0390583546341513 0.08221542109331359
0.06420393609654006 0.03883457601690672 0.02211163833056653
0.07212913689188008 0.03879525678109773 0.02038529117029157
0.08073481036503849 0.03916617022375285 0.01934269019937285
0.1309416453644354 0.07241693006959529 0.08221542109097325
0.08956698113972235 0.06166835447953896 0.0799250786764521
0.07187848760921399 0.02918413428307676 0.08716065356999191
0.08053579396622317 0.01855828839261732 0.05267895296894133
0.08096110752394456 0.02931856836158386 0.007853312108427704
0.09812151238946858 0.0291841342869158 0.08716065357003834
0.04767899192725401 0.04767899191986261 0.01817115988879333
0.04510383336121361 0.02724377243869339 0.04068476340680874
0.05452061470050412 0.02617672747266625 0.03750579579468663
0.06274876833656626 0.02659250855990469 0.03474892053103116
0.1408158657157432 0.07187848760980405 0.08716065357033997
0.04898708749070762 0.04026123266361992 0.001978966809055773
0.08921375179792344 0.04576667429016455 0.03989356535607876
0.04515082774286461 0.02708510363470527 0.04829584586127206
0.04966951461232965 0.04096277226190788 0.01255695179197317
0.09720501527230541 0.04630588365165702 0.05867994793439218
0.1236941163482524 0.07279498472710866 0.05867994793354884
0.08043301885996673 0.06166835447934049 0.07992507867508029
0.04838984771931736 0.03995765738804148 0.02344124204754054
0.04869030865350035 0.04869030863729778 0.008844018104369834
0.05928496939188019 0.04932893861382233 0.008135685476445366
0.0641476026466731 0.04871191683441826 0.004307042306923352
0.08057509288386693 0.04943166171025 0.001161547544314629
0.07402464245834887 0.04927463797410559 0.002209315896712482
0.08051857514857494 0.01897086952282463 0.04282943299561424
0.08961456407399473 0.02933651276233655 0.08590326638021543
0.1134015020671297 0.05659849793357102 0.05448826732794335
0.080385435928112 0.02933651276276831 0.08590326637886216
0.121752609761696 0.0482473902381878 0.08126022024553713
0.07166472288918034 0.02649467034955448 0.05659870464841172
0.07257476137270413 0.04701307149763941 0.07901536047331403
0.1430201179346849 0.07167265870058215 0.06490361723890714
0.1429697701511159 0.062746275640788 0.06597245512144839
0.1427774741515372 0.05430892467410908 0.06830158117854519
0.1417305777009794 0.04572191338266339 0.07134516717572209
0.08052512683543334 0.0264539791583225 0.05589779681442471
0.04712590285601988 0.03849591520089205 0.03836816730049448
0.1325555262492518 0.0724978807280556 0.05543129246900486
0.05594368869365279 0.03771351791678727 0.03368281947449962
0.06357880539863101 0.03779584442387519 0.03111352354386288
0.08082573596036066 0.03803453193602703 0.02854715075519401
0.07230604268958687 0.03790486509585745 0.02923784436836352
0.122986928501418 0.07257476137392761 0.07901536047443197
0.1311468199956533 0.04750343455900629 0.05572784428823234
0.0713855032530071 0.01797568236748608 0.07166034521027388
0.08054096952149595 0.01801676841280173 0.07057552355077794
0.05435546742213976 0.02603474683503274 0.0448247494126512
0.04733269336240648 0.03838181340662361 0.03063674112721639
0.09742523862687266 0.04701307149743385 0.07901536047358745
0.0808532439456939 0.02580042132762069 0.03190476894123435
0.07229948114207922 0.03998499452159669 0.009833276253648736
0.07250704220780162 0.02511987634574502 0.03354083902277216
0.1143987608896031 0.07296136750020847 0.04999585093864285
0.1059218525226986 0.07307548887668067 0.04634458655796218
0.09713800841394604 0.07286199158462005 0.04428586677327465
0.1138077764115363 0.06460147157319145 0.0514754975689275
0.1057595320654281 0.06424046793505772 0.0481490100851894
0.09692451112333314 0.06407814747703877 0.04634458655936232
0.1053985284241693 0.05619222358675636 0.05147549756816513
0.09703863249892493 0.05560123910753458 0.04999585094020523
0.08071318244958961 0.02590521630388324 0.03925564616527007
0.05682200679947197 0.04045962065784574 0.01673668354211752
0.08068096954782879 0.04022135921177832 0.007970592855559342
0.1240297319791925 0.07324099404057058 0.05062559271148553
0.113771816622326 0.07356538378451993 0.0409484628470602
0.1060780623064309 0.07380974943201818 0.03658245314582335
0.09652967219843225 0.07347032780127559 0.03431338536214443
0.123645211287336 0.06450698993374621 0.05283494151723235
0.1133303402212403 0.0643595425537561 0.0423932019542279
0.1061002934699336 0.06389970652899198 0.03876211362164966
0.09619025056619661 0.06392193769398831 0.03658245314558017
0.122732619705961 0.05710979289440012 0.05389537026709271
0.113177907145221 0.0568220928525779 0.0454682233245881
0.105640457445955 0.05666965977614069 0.04239320195412263
0.09643461621437402 0.05622818337779523 0.04094846284835624
0.1226503431502189 0.04734965684765951 0.06175471685256723
0.1128902071044576 0.04726738029469218 0.05389537026495633
0.1054930100637651 0.04635478871304023 0.05283494151597174
0.09675900596000304 0.04597026801884947 0.05062559271131534
0.06297659012210703 0.02612529111184429 0.04180747954165114
0.06501733553490162 0.04088294844362622 0.0123259472792804
0.07211596041709638 0.02582091502262798 0.04061595331480281
0.06506797818389777 0.04293785116436093 0.001948429906218388
0.05564188564838119 0.0423891429939625 0.005551428583879334
0.0973613122776622 0.07263868772086751 0.0764573958351621
0.1243014610696955 0.07295654532159468 0.04056502149512946
0.1138077050695756 0.07293433347248574 0.03043886852001242
0.1058815677634167 0.07355919092360104 0.02614505238332888
0.0644284779427519 0.0474816540084442 0.07877877069479224
0.1238784853736218 0.06404665541912054 0.04245906648990208
0.113256951668987 0.06432322163928562 0.03194228745721911
0.1061958730256368 0.06380412697498519 0.02797879407982823
0.09644080907377284 0.06411843223595541 0.02614505238284587
0.1327363344659607 0.06361039461921077 0.04847241618080111
0.1231863158443478 0.05669147124783777 0.04518934437312849
0.1131606493625485 0.05683935063435922 0.03600957949854963
0.1056767783610843 0.0567430483279387 0.03194228745675547
0.09706566652510158 0.05619229492816075 0.03043886851749536
0.1226563539434624 0.04734364605680268 0.05261956606523222
0.1133085287495835 0.04681368415583646 0.04518934437152899
0.1059533445806228 0.04612151462569235 0.04245906648943707
0.0970434546775089 0.04569853892638447 0.04056502149396247
0.1225183459896741 0.06442847794243818 0.07877877069553038
0.1055715220575578 0.04748165400836039 0.07877877069605085
0.1323281702486625 0.05564191981636224 0.05105787058198101
0.1321320927599054 0.05535908157142957 0.05940283444023766
0.08068390138605047 0.03741696912977469 0.03737974174616018
0.1228986810293254 0.04710131896821516 0.04479620223478971
[...]
      <PointData>
        <DataArray type="UInt64" Name="type" format="ascii">
1
1
1
1
1
1
1
1
1
1
1
1
1
1
1
1
1
1
1
1
1
1
1
1
1
1
1
1
1
1
1
1
1
1
1
1
1
1
1
1
1
1
1
1
1
1
1
1
1
1
1
1
1
1
1
1
1
1
1
1
1
1
1
1
1
1
1
1
1
1
1
1
1
1
1
1
1
1
1
1
1
1
1
1
1
1
1
1
1
1
1
1
1
1
1
1
1
1
1
1
1
1
1
1
1
1
1
1
1
1
1
1
1
1
1
1
1
1
1
1
1
1
1
1
1
1
1
1
1
1
1
1
1
1
1
1
1
1
1
1
1
1
1
1
1
1
1
1
1
1
1
1
1
1
1
1
1
1
1
1
1
1
1
1
1
1
1
1
1
1
1
1
1
1
1
1
1
1
1
1
1
1
1
1
1
1
1
1
1
1
1
1
1
1
0
1
1
1
1
1
1
1
1
1
1
0
0
0
0
1
1
1
1
1
1
1
1
1
1
1
1
1
1
1
1
1
1
1
1
1
1
1
1
1
1
1
1
1
1
1
1
1
1
1
1
1
1
1
1
1
1
1
1
1
0
0
1
1
1
0
0
1
1
1
1
1
1
1
1
1
1
1
1
1
1
1
1
1
1
1
1
1
1
1
1
1
1
1
1
1
1
1
1
1
1
1
1
1
1
1
1
1
1
1
1
1
1
1
1
1
1
1
1
1
1
1
1
1
1
1
1
1
1
1
1
1
1
1
1
1
1
1
1
0
1
1
1
1
1
1
1
1
1
1
1
1
1
1
1
1
1
1
1
0
1
1
1
1
1
1
1
1
1
1
1
1
1
1
1
1
1
1
1
1
1
1
1
1
1
1
1
1
1
1
0
1
1
0
1
0
1
1
1
1
1
1
1
1
1
1
1
1
1
1
1
1
0
0
1
1
1
1
1
1
1
1
1
1
1
1
1
1
1
1
1
1
1
1
1
1
0
1
1
1
0
0
0
0
0
1
0
1
0
1
1
1
1
0
0
0
0
1
1
0
0
0
1
1
1
1
1
1
1
1
1
1
1
1
1
1
1
1
1
1
1
1
1
1
1
1
1
1
1
1
1
1
0
0
1
1
0
0
1
1
1
1
0
1
0
1
1
1
1
1
1
1
1
1
1
1
0
0
0
0
0
0
0
0
0
0
0
0
0
0
0
0
0
0
0
0
0
0
0
0
1
1
0
0
0
0
0
0
1
1
1
0
0
0
0
0
0
0
0
0
0
0
0
0
0
0
0
0
0
0
0
0
0
0
0
0
0
0
0
0
0
0
0
0
0
0
0
0
0
0
0
0
0
0
0
0
0
0
0
0
0
0
0
0
0
1
1
1
1
1
1
1
1
1
1
1
1
1
1
1
1
1
0
0
0
0
1
0
0
0
1
1
1
1
1
1
1
1
0
0
0
0
1
1
1
1
0
0
0
1
1
1
1
1
1
1
1
1
1
1
1
1
1
1
1
1
1
0
0
0
0
0
1
1
0
0
1
0
0
0
0
0
0
0
0
0
0
0
0
0
0
0
0
1
1
0
0
0
0
0
0
0
0
0
0
0
0
0
0
0
0
0
0
0
0
0
1
1
1
1
1
1
1
1
1
1
1
1
1
1
1
1
1
1
1
1
1
1
1
1
1
1
1
1
1
1
1
1
1
1
1
1
1
1
1
0
0
0
0
0
0
1
1
0
0
1
1
0
0
1
0
0
0
0
0
1
0
0
0
0
0
0
0
0
0
0
0
0
0
0
0
0
0
0
0
0
0
0
0
0
0
1
0
0
0
0
0
0
0
1
0
0
0
0
0
0
0
1
0
0
0
1
1
1
1
1
1
1
1
1
1
1
1
1
1
1
1
1
1
1
1
1
1
1
1
1
1
1
1
1
1
1
1
1
1
1
1
1
1
1
1
1
1
1
1
1
1
1
1
1
1
1
1
1
1
1
1
1
1
1
1
1
1
1
1
1
1
1
1
1
1
1
1
1
1
1
1
1
1
1
1
1
1
1
1
1
1
1
1
1
1
1
0
0
0
0
1
1
1
0
1
1
1
1
1
1
1
1
1
1
1
1
1
1
1
1
1
1
1
1
1
1
1
1
1
1
1
1
1
1
1
1
1
1
1
1
1
1
1
1
1
1
1
1
1
0
1
1
0
0
1
1
1
1
1
1
1
1
1
1
1
1
1
1
1
1
1
1
1
1
1
1
1
1
1
1
1
1
1
1
1
1
1
1
1
1
1
1
1
1
1
1
1
1
1
1
1
1
1
1
1
1
1
1
1
1
1
1
1
1
1
1
1
1
1
1
1
1
1
1
1
1
1
1
1
1
1
1
1
1
1
1
1
1
1
1
1
1
1
1
1
1
1
1
0
0
0
0
0
0
0
0
0
0
0
0
0
0
0
0
1
0
0
1
0
0
0
0
0
0
0
0
0
0
0
0
0
0
0
0
0
0
0
0
0
0
0
0
0
0
0
0
0
0
0
0
0
0
0
0
0
0
1
1
1
1
1
1
1
1
1
1
1
1
1
1
1
1
1
1
1
1
1
1
1
1
0
0
1
1
1
1
0
1
1
0
0
1
1
1
0
0
0
0
0
1
1
1
1
0
1
1
1
1
1
0
1
1
1
1
1
1
1
1
1
1
1
1
1
1
1
1
1
1
1
1
1
1
1
1
1
1
1
0
1
1
1
1
1
1
0
1
1
1
1
1
1
1
1
1
1
1
1
1
1
1
1
1
1
1
1
1
1
1
1
1
1
1
1
1
1
1
1
1
1
1
1
1
1
1
1
1
1
1
1
1
1
1
1
1
1
1
1
1
1
1
1
1
1
1
1
1
1
1
1
1
1
1
1
1
1
1
1
1
1
1
1
1
1
1
1
1
1
1
1
1
1
1
1
1
1
1
1
1
1
1
1
1
1
1
1
1
1
1
1
1
1
1
1
1
1
1
1
1
1
1
1
1
1
1
1
1
1
1
1
1
1
1
1
1
1
1
1
1
1
1
1
1
1
1
1
1
1
1
1
1
1
1
1
1
1
1
1
1
1
1
1
1
1
1
1
1
1
1
1
1
1
1
1
1
1
1
0
1
1
1
1
0
0
0
0
1
0
1
0
0
0
1
0
0
0
0
0
0
0
0
0
0
0
0
0
0
0
0
0
0
0
0
0
0
0
0
0
0
0
0
0
0
0
0
1
1
1
1
1
0
0
0
0
1
1
1
1
1
1
1
1
1
1
1
1
1
1
1
1
1
1
1
1
1
1
1
1
1
1
1
1
1
1
1
1
1
1
1
1
1
1
1
1
1
1
1
1
1
1
1
1
1
1
1
1
1
1
1
1
1
1
1
1
1
1
1
1
1
1
1
1
1
1
1
1
1
1
1
1
1
1
1
1
1
1
1
1
1
1
1
1
1
1
1
1
1
1
1
1
1
1
1
1
1
1
1
1
1
1
1
1
1
1
1
1
1
1
1
1
1
1
1
1
1
1
1
1
1
1
1
1
1
1
1
1
1
1
1
1
1
1
1
1
1
1
1
1
1
1
1
1
1
1
1
1
1
1
1
1
1
1
1
1
1
1
1
1
1
1
1
1
1
1
1
1
1
1
1
1
1
1
1
1
1
1
1
1
1
1
1
1
1
1
1
1
1
1
1
1
1
1
1
1
1
1
1
1
1
1
1
1
1
1
1
1
1
1
1
1
1
1
1
1
1
1
1
1
1
1
1
1
1
1
1
1
1
1
1
1
1
1
1
1
1
1
1
1
1
1
1
1
1
0
0
0
0
0
0
0
0
0
0
0
0
1
1
1
1
1
1
1
1
1
1
1
1
1
1
1
1
1
1
1
1
1
0
0
0
0
0
0
0
0
0
0
0
0
1
1
1
1
1
1
1
1
1
1
1
1
1
1
1
1
1
1
1
1
1
1
1
1
1
1
1
1
1
1
1
1
1
1
1
1
1
1
1
1
1
1
1
1
1
1
1
1
1
1
1
1
1
1
1
1
1
1
1
1
1
1
1
1
1
1
1
1
1
1
1
1
1
1
1
1
1
1
1
1
1
1
1
1
1
1
1
1
1
1
1
1
1
1
1
1
1
1
1
1
1
1
1
1
1
1
1
1
1
1
0
0
0
0
0
0
0
1
1
1
1
1
1
1
1
1
1
1
1
1
1
0
0
0
0
0
0
0
1
1
1
1
1
1
1
1
1
1
1
1
1
1
1
1
1
1
1
1
1
1
1
1
1
1
1
1
1
1
1
1
1
1
1
1
1
1
1
1
1
1
1
0
0
0
0
0
0
0
0
0
0
0
0
1
1
1
1
1
1
1
1
1
1
1
1
1
1
1
1
1
1
1
1
1
1
1
1
1
1
1
1
1
1
1
1
1
1
1
0
0
0
0
0
0
0
1
1
1
1
1
1
1
1
1
1
1
1
1
1
1
1
1
1
1
1
1
1
1
1
1
1
1
1
1
1
1
1
1
1
1
1
1
1
1
1
1
1
1
1
1
1
1
1
1
1
1
1
1
1
1
1
1
1
1
1
1
1
1
1
1
1
1
1
1
1
1
1
1
1
1
1
1
1
1
1
1
1
1
1
1
1
1
1
1
1
1
1
1
1
1
1
1
1
1
1
1
1
1
1
1
1
1
1
1
1
1
1
1
1
1
1
1
1
1
1
1
1
1
1
1
1
1
1
1
1
1
1
1
1
1
1
1
1
1
1
1
1
1
1
1
1
1
1
1
1
1
1
1
1
0
1
1
1
1
1
1
1
1
1
1
1
1
0
1
1
1
1
1
1
1
1
0
1
1
1
1
1
0
0
1
0
0
0
0
0
0
1
1
0
1
1
1
1
1
1
1
1
0
1
1
1
1
1
1
1
0
1
1
1
0
1
1
1
1
1
0
1
1
1
1
1
1
1
1
1
1
1
1
1
1
1
1
1
1
1
1
1
1
1
1
1
1
1
1
1
1
0
1
1
1
1
1
1
1
1
1
1
1
1
1
1
1
1
1
1
1
1
1
1
1
1
1
1
1
1
1
1
1
1
1
1
1
1
1
1
1
0
1
1
1
0
0
0
1
0
0
0
0
0
0
1
1
0
0
0
0
0
0
1
1
1
1
1
0
0
1
1
1
1
1
1
1
1
1
1
1
1
1
1
1
0
1
1
0
0
0
0
0
0
0
0
0
0
0
0
0
0
0
0
0
1
0
0
0
0
0
0
0
0
1
1
1
1
0
0
0
1
0
0
1
1
1
1
1
1
1
0
0
0
1
0
0
0
0
1
1
0
0
1
1
1
1
1
1
1
1
1
1
1
1
1
0
1
1
1
0
1
1
1
1
1
1
0
1
1
0
1
1
1
1
1
1
1
1
1
1
1
1
1
1
1
1
1
1
1
1
1
1
1
1
1
1
1
1
1
1
1
1
1
1
1
1
1
1
1
1
1
1
1
1
1
1
1
1
1
1
1
1
1
1
1
1
1
1
1
1
1
1
1
1
1
1
1
1
1
1
1
1
1
1
1
1
1
1
1
1
1
1
1
1
1
1
1
1
1
1
1
1
1
1
1
1
1
1
1
1
1
1
1
1
1
1
1
1
1
1
1
1
1
1
1
1
1
1
1
1
1
1
1
1
1
1
1
1
1
1
1
1
1
1
1
1
1
1
1
1
1
1
1
1
1
1
1
1
1
1
1
1
1
1
1
1
1
1
1
1
1
1
1
1
1
1
1
1
1
1
1
1
1
1
1
1
1
1
1
1
1
1
1
1
1
1
1
1
1
1
1
1
1
1
1
1
1
1
1
1
1
1
1
1
1
1
1
1
1
1
1
1
1
1
0
1
0
0
0
0
0
0
0
0
1
0
0
1
0
0
1
0
0
0
0
1
0
0
0
0
0
0
0
0
1
0
0
0
0
0
0
0
0
0
0
0
0
0
1
1
1
0
0
0
0
0
0
0
0
1
0
0
0
0
0
1
0
1
1
0
1
1
0
1
0
1
1
0
0
0
0
0
0
0
0
0
0
0
0
0
0
0
0
0
1
0
0
0
0
0
1
0
0
1
0
0
0
0
0
0
0
0
0
0
0
0
0
0
0
0
0
0
0
0
0
0
0
0
0
0
0
0
0
1
1
0
0
0
0
0
0
0
0
0
0
1
0
0
0
0
0
0
0
1
1
0
0
1
1
1
1
0
0
1
0
0
1
1
0
1
1
1
1
1
0
0
0
1
0
0
0
1
0
0
1
1
0
0
0
1
1
0
1
1
0
0
1
1
1
1
1
1
1
1
1
1
1
1
1
1
1
1
1
1
1
1
1
1
1
1
1
1
1
1
1
1
1
1
1
1
0
0
0
0
0
0
0
0
0
1
1
1
0
1
0
0
0
1
1
1
1
1
1
1
1
1
1
1
1
1
1
1
1
1
1
1
1
1
1
0
1
1
1
0
1
1
0
0
1
1
1
1
1
1
0
1
1
1
1
1
0
0
0
0
0
1
1
1
1
0
1
1
1
1
1
1
1
1
1
1
1
1
1
1
1
1
1
1
1
1
1
1
1
1
1
1
1
1
1
1
1
1
1
1
1
1
1
1
1
0
1
1
1
1
1
1
1
0
0
1
1
1
1
1
1
1
1
1
0
1
0
0
1
0
0
1
1
1
1
1
0
0
1
0
0
0
0
0
0
0
0
0
1
1
0
0
1
1
0
1
1
1
1
0
1
1
1
1
1
1
1
1
1
1
1
0
1
1
1
1
0
0
1
1
1
1
1
1
1
0
0
0
0
0
1
1
1
1
1
1
1
1
1
1
1
1
1
1
1
1
1
1
        </DataArray>
        <DataArray type="Float64" Name="density" format="ascii">
998.9724410842396
1000.566900933836
1001.600334567956
1001.60033457094
1001.344856925261
1001.34485694977
999.080764343714
999.0807643559892
1001.766596362466
1001.766596356377
1001.645054669885
999.746002658418
999.7460026741541
1002.32188156336
1002.321881598133
999.3675056669374
999.3675056944664
1001.808896925498
1002.055732940956
1004.103664865897
999.4398407510469
999.4398407327325
998.2019207346933
998.2019207513516
1001.890906222208
1000.394830527978
1002.715351222243
1001.521885134148
1001.26821253305
1001.268212515682
1000.793968043199
1000.793968044562
999.4493301847901
999.4493301459668
1001.808896925707
996.6012139115414
996.6012139320478
1000.996485040582
1000.996485037494
1000.99648503781
996.9364871267722
1003.154103560367
996.029360295904
1000.071928694177
1000.426423203265
996.8371491306552
994.5753157188441
996.5815646022891
1002.79738739106
979.1110513929734
1019.702877276755
997.4276721521333
996.9364871634696
998.6564538114947
997.433978113768
997.4842054303408
996.936487130872
1000.881111666099
999.219959263601
1000.450805433333
1001.788038229006
999.2199593084886
1001.924263270808
1001.303127765853
999.3083643765623
1003.579687579928
999.219959263555
1003.658879816517
1001.890906227126
999.4832045714331
1005.464683255282
1001.645054681254
1001.645054634491
1000.881111666291
998.4158631966297
999.6067403306158
1001.294423783057
996.0973246159173
1003.012315069854
996.694077578916
1000.149558085533
999.3393736972904
999.3958423662123
999.3393736693746
1001.320422727441
1001.533832157145
1000.751581602651
999.0086974414063
1000.017076787995
1001.166462487259
999.7916618092335
1002.689592141933
1003.53116198869
999.5385937709725
998.6079751386222
998.449186102919
997.4172900815037
994.4599199898015
1000.751581602031
1002.609894417395
1000.572019036591
999.2079392083593
998.0413463176177
1000.771357264583
1000.751581582592
1004.247662459289
1000.810720006044
1003.520588628201
997.7019011145028
999.8137032156967
1000.560525211101
998.7715917603138
1000.094080967293
999.8137031861916
998.7715917867987
997.7019011277999
999.8731329299333
1006.046976287551
992.2892194739886
1002.055732945748
997.3678554261089
1002.567680900823
999.9912565301204
1004.103664904682
1000.733860968314
1006.58395280047
1002.567680853854
1003.390456309335
997.3092424116248
1000.733860961651
997.3678553825316
1005.392826919747
1003.390456295904
1004.103664910298
1002.055732965707
1002.13363018865
1008.226203284609
1000.872848740568
1005.49709304191
992.4647076556788
1001.697028271848
1000.394830552572
995.154785368558
1001.194806156631
999.5751135780987
1002.715351243022
998.7064028235374
1007.194116953016
1001.194806124118
999.1688509671341
999.3201599463815
992.1541780962275
998.7064027992053
995.1547853351062
1005.04065112713
999.3201599615368
1002.715351266751
1000.394830561166
999.5751135464034
999.5751135591462
997.8945875734975
1000.712934712504
997.8446366746275
1000.427666452627
1002.082448604414
999.8581062019101
999.4299582936475
999.8446461168194
1008.644010746797
1007.891713701962
981.4251837159751
1004.97089755139
997.0712026876439
997.2838473459246
999.5500935141226
999.0944302371669
999.7538134919101
1000.676267623576
992.4995169676222
1003.985061316996
1000.676267619543
1000.808303282541
1000.808303277689
1001.697092375611
1001.697092383249
999.6795697924009
1002.156914624605
1001.341530276414
1003.072793056458
997.2581393678944
997.0084116102856
999.8640564594549
999.8640564719864
1003.186080217734
1003.615874689703
998.4816066500184
997.022890217854
999.7607103433382
1003.186080227268
997.214115400079
999.9222061491056
997.8919928539896
997.2838473471242
997.891992882834
999.922206139723
1001.433365623322
1000.038254188945
1000.532884065274
1000.638024079295
1002.234459123788
998.164090741384
997.9833652057997
1000.326336729571
994.8145917693406
999.7974766867743
1002.234459104033
997.560836704843
1001.661985666858
1003.171616226007
1001.661985671782
999.5548120751105
1005.302908601702
998.6929803219753
999.2037894661881
1000.750124940721
1000.750124961221
997.3651906771933
1005.41838771229
1005.418387722604
1003.128421793507
999.8007345341468
1007.440344454026
1003.583030538902
1003.583030555444
999.7538134529689
1002.895141313147
997.427672021312
992.0351857095632
1000.426423142288
1002.156914622106
1000.747566560223
996.0293602761492
1001.533832230747
1001.527878159419
1001.527878131041
1000.473848814971
1000.473848783528
1004.705115513839
999.5334674238107
999.5334673871949
1000.998635913476
995.6563399030589
1012.40816191723
1000.712934670645
1002.991248019481
1000
999.6795697225054
999.5385937325295
1000.21097529647
1001.609462701864
1000.578299216311
1002.266388854312
1002.266388861852
1011.83767653354
1003.531161921109
1004.32052534692
1004.320525336729
1004.103909502139
1001.726149516709
1001.726149529077
997.0836457028216
1003.150085286763
998.6079750902866
999.193888978408
992.0321799717392
998.4491860845144
994.4599199790943
1001.614899003282
1001.614898970726
1003.467741511177
1003.467741464525
1002.609894442847
1000.817781722902
997.0836457389382
1003.878610746825
998.4275712345178
1001.153589110084
999.9186421357797
996.1143730203062
997.2892637021889
1011.837676578854
1001.3543504756
1002.797387391933
999.4095238110934
998.5862778918026
1001.380590459096
997.8945875861823
999.1688509736626
997.8919928711332
999.7916617802506
1001.384056443282
997.2141154236411
997.2141154071677
1000.572019024863
999.7607103432138
999.7607103334401
997.0228901998642
997.0228901969651
998.4816066352419
1001.674188154507
1001.166462448361
996.640344078464
999.8299719921052
1000.072420174902
999.8299720018971
1001.341279195619
999.9158526784148
1001.341279224736
994.9970115924147
1001.916633420084
997.8690038124969
997.1804746601864
1000.572019061732
1000.8095270242
1000.809527006999
1003.154103561082
1003.878610764515
997.3651907108083
997.4276720563877
1000.426423175923
996.0293602902591
997.8446366656971
999.2079392099478
1000
1001.678998633717
1001.678998634207
999.5936924216428
999.5936924041357
1002.976310702309
1002.976310658247
1001.777712186713
1001.777712222095
1001.777712207981
999.5460401390582
999.546040096878
999.546040109475
1003.564546677448
1003.564546644886
1003.564546635271
997.9444279334126
997.9444279610327
998.4895453414135
998.4895453217479
1000
998.50846957767
998.5084696025766
1001.014473657988
1001.014473647046
1001.014473607373
1000.357559247424
1000.357559213748
1000.357559211259
1003.549729938837
1003.549729958554
1001.201197292117
1001.201197221843
1001.201197257507
1001.931701466564
1001.931701476606
1005.08373941089
1001.584023333176
1001.584023294364
1001.58402330948
1001.970438624468
1001.970438636053
1002.403566085694
1002.403566121114
997.8880158524513
997.888015802784
997.8880158449683
1001.018458377237
1001.018458372794
998.996747677344
998.1509498282834
1000
1002.797387380888
998.1509498162721
1000.04197804032
999.0066867100221
1000.382593818918
1000.504482013524
1000.50448202614
998.9896542516437
998.4424436606491
1001.726149549243
1003.531161934356
998.6079751038176
998.4491860888966
998.4424436799942
994.4599199680448
997.4172900654647
1000.017076743885
999.0086974349675
1001.916633441571
1004.103909518857
999.7974053566842
1000.795831006257
1000.941510592842
999.7974053870029
1003.128421810011
1002.895141307621
998.9820178245556
1000.747566546807
1001.533832225646
1002.689592181861
1000.657106993192
1000.657106974764
998.9523649209597
1000.725981020356
1000.725981072778
1003.150085325055
1000.817781755166
1001.354350508388
1000.725981046658
1004.320525343935
1001.408568015472
1010.202783042793
971.3554544560836
999.0944302144825
1006.980387886158
1001.600951153523
999.2037894780217
1001.408568030639
999.8007345343071
1000.735293079279
1000.209277663549
1000.253084446675
1000.524454220504
1001.199075596098
999.1985911759945
1001.736279376421
999.4095238028775
1001.402146072898
999.198591215408
999.1938889821771
1001.384056464402
999.7538134337108
1000
1001.063505525869
1001.654529078596
1000
1001.932379910498
1001.824010230511
1000
1000.382593814146
1000.941510590643
1001.792301059864
1001.792301090038
997.6470630368567
997.647063096004
997.8094616410307
1005.464683175625
1005.464683235103
995.0600775913304
995.0600776293712
997.14126101496
997.141260981036
995.8291746815588
998.856667533437
996.6000872997735
1001.542687920115
1001.542687800854
1000.771357290327
1000.771357301922
1005.202024850176
997.723421769387
1000.315833941467
1005.202024987822
991.9412857401352
991.9412859141869
1012.927977451308
989.8759747879333
989.8759747848082
994.5753157110474
994.5753157272045
997.8945875686735
1000.49726679
1000.735293074859
1012.312584484088
998.6564538226384
1002.137530439936
1021.145633438721
998.6564538225039
1001.829975664859
1001.829975660867
997.4339781505531
1001.402146062904
997.4339781306552
1006.773682700622
998.9523649655495
992.4647076877603
992.4647076732391
1005.497092966967
1005.497092950289
997.4842054317802
1000.096470146268
999.4832045322077
999.4832045305599
1001.924263319196
994.6963445757035
1000
1000
1000.400310692913
1000.505442525263
1000.779288724898
1004.220947132922
1000
1000
1000
1000
1000
1000
1000.829888621245
1000.497266790878
1000
1000
1002.171547463048
1001.28908661549
1000
1000
1000
1000
1002.438687921651
1002.886698977812
1014.047701019406
998.7400873283432
1001.471903831504
1000.929439795635
1001.3377212284
1001.257916836966
1001.550983251193
1000.61115012738
1001.521885160839
1001.82401020414
1004.304838947337
1020.495664548313
1000
1000
1000
1000
1000
1000.604281484683
1000.315503813886
1000
1000
1000
1000
1000.829888622179
1000.879946053302
1000.063978136649
1000
1000
1000.40031069633
1000.505442531883
1000.779288736055
1000.448796293769
1000.027127268966
1000.98232004856
1000.629387280047
1000.290013134724
1000.153861379386
1000.101703013475
1000.040805494965
1000
1000.545825392448
1000.006039573616
1000
1000
1000
1000
1000
1000.209277653081
1000.253084442914
1000.524454195296
1001.199075550093
1001.112162402483
1001.315408654555
1000.501879463318
1001.063505579584
1001.654529101475
1002.438687892037
1002.88669899045
1001.65762824403
1002.424780003591
1001.709299340802
1001.337721258972
1001.25791684738
1001.550983286395
1000.611150191363
998.9724411208769
998.972441189828
996.1143730612143
996.1143730619079
1001.380590537709
998.5862779779636
998.5862779681166
1001.380590534125
997.1804745952631
994.9970115724481
996.1230353244152
998.8163577899844
998.8163577862067
997.9842084026664
998.0413462490626
998.0413462670275
995.39770661482
1004.002677417382
1002.991248038298
1000
1001.609462714781
997.984208444808
1000.578299259753
1000
1002.137530429539
999.6405447004032
1002.13363009435
1002.133630139289
1000.998636097008
1003.822177400131
1003.569294175331
1001.294423785897
1001.294423793822
1005.30302260779
1000.638024188902
1000.532884122326
1000.038254181825
998.1640905892864
997.983365143778
1000.974244235533
996.9153759969015
1001.433365610995
1003.615874671324
1006.773682692256
992.4995169740998
1003.985061297444
1001.34153031076
1003.072793020916
997.2581392928042
997.0084116542614
999.1117403638608
1009.673538638204
1000.872848676058
1005.302908536506
999.5548120255241
1003.171616219595
999.7974766972255
994.8145917665246
1000.326336696411
998.5096396438812
1003.95084042002
1000.87284867201
1006.402854255924
1021.463984330555
1012.005712079998
1016.514472843278
1018.104560916964
998.95236491105
1001.134724880404
1020.495664537263
1021.145633444018
989.5798291397707
1000
1000
1000.101703008122
1000.153861375201
1000.290013131547
1000.62938726742
1000.982320019594
1000.382593785581
1000.041978022061
1000
1000
1000
1000.006039568091
1000.54582539879
1000.941510597615
1000.795830999595
1000.049553415517
989.5798290881427
1001.112162418408
1001.199075579203
1000.524454208776
1000.253084452399
1000.209277692986
1000.735293127032
1001.600951172877
1001.657628234596
1002.88669897316
1002.438687907113
1001.654529082401
1001.063505580085
1001.402146103042
1001.736279397691
1000.578927720927
1000.611150135392
1001.550983244841
1001.257916829151
1001.337721243029
1000.929439803847
1001.471903832883
1008.644010706764
981.4251838843439
1004.970897420259
1000.660390370996
1002.085120180115
999.4299582190885
997.5510360781527
999.8581061490411
998.8344058472334
999.4299582290511
998.1707097462516
997.0712028930451
995.181996319721
999.6405444019057
981.4251838257613
997.0178181598272
1003.82217741275
1000.998636272012
1000.149558039767
1001.218243636206
1000.974244221365
997.9833651665472
998.1640905715112
1002.085120186262
1001.544194655247
999.1117403652609
997.0084117247186
997.2581392876167
1003.072793058118
1001.341530358385
998.8769162059311
998.5096396672111
1000.326336673685
994.8145917795645
999.7974767001374
1003.171616243003
1001.134724922301
999.8731328894778
1000.049553397135
1001.414688822282
1002.423801921047
1018.104560934875
1016.514472835728
1012.00571209312
1021.463984392249
999.4709830922405
999.4709831535679
1000
1000
999.4709831108235
998.9604262513878
1000
1000
998.9604262066066
1000
1000
1000
1000
1000
998.9604262874157
1000.604281488154
1000.879946051547
1000.44879628878
1000.040805493481
1000
1001.315408658148
1002.424780037742
1000.487272809165
1000
1000
1000.21470423524
1001.078360218238
1004.220947095739
1006.402854220773
1021.463984308138
1012.005712107185
1016.514472873206
1018.104560919142
1000
1000.214704207549
1005.303022583002
1000.638024292682
1000.532884117486
1000.038254182317
1001.433365645393
1004.970897515221
1000
1000
1004.002677427523
1002.991248037924
1000
1001.609462713307
1000.578299247148
997.0712028703322
1000.039801156972
1000
1001.414688721105
1002.423801905889
1001.289086649853
1002.171547447566
1000
1003.299926596849
1000.446266309072
1000.48727280803
1000.578927731055