<VTKFile type="PolyData" version="1.0" byte_order="LittleEndian" header_type="UInt64">
  <PolyData>
    <Piece NumberOfPoints="1446" NumberOfVerts="1446">
      <Points>
        <DataArray type="Float64" Name="Points" NumberOfComponents="3" format="ascii">
0.1429307792815531 0.06271766037701637 0.01092882106733428
0.1231903794434671 0.03557741903210155 0.04134869825642528
0.1618131578947369 0.08951842105263157 0.08676538461538462
0.131293762859871 0.04621233614508116 0.01367078272199895
0.1434721869012869 0.02652781317166397 0.02917202650761694
0.1311783037655196 0.04699744176322821 0.006568080085131672
0.1230025581273067 0.03882169627210516 0.006568079939429703
0.1525170110685795 0.02782534835858764 0.03555814131865605
0.1618131578947369 0.08048157894736842 0.1042884615384616
0.1421746516189152 0.0174829888912365 0.03555814133414562
0.1237876639559678 0.0387062370629729 0.0136707825007415
0.1342157539797722 0.03578424671113733 0.01553560912052814
0.1306098572221008 0.01910454753571748 0.02299347997507245
0.1508954524368931 0.0393901427671385 0.02299347999536677
0.1509889569113501 0.01901104306108408 0.04880382989433892
0.1297022158075506 0.0186224918745927 0.02656240223865764
0.1618131578947369 0.08048157894736842 0.09552692307692309
0.1618131578947369 0.08048157894736842 0.08676538461538462
0.1428051363304187 0.01937766882380852 0.02083108218272056
0.1506223311779514 0.02719486370336462 0.02083108215215848
0.1068698708995645 0.03008937413246066 0.007870588442512188
0.1522776201866645 0.02651533860631822 0.02875131501433326
0.1618131578947369 0.07144473684210526 0.1042884615384616
0.1434846613949922 0.01772237980585342 0.02875131506863965
0.1413089200174501 0.02869107997540083 0.008883546823437191
0.120871282235317 0.02164576956935871 0.02006278948081071
0.1383115050508085 0.03168849489338359 0.06981252409956908
0.1364531779988413 0.03354682197185778 0.06793459836573641
0.1206613336898617 0.06626200939989162 0.0349986221822632
0.1618131578947369 0.03529736842105263 0.1042884615384616
0.1415655404105695 0.02470233439403756 0.01281955182810498
0.1054781975926253 0.06452180237303405 0.04159122573887147
0.145297665596075 0.02843445958463891 0.01281955180067876
0.1203195090244794 0.04357708193498235 0.008473124029206242
0.1305237977822999 0.03218709533660728 0.002222324611180354
0.1618131578947369 0.02626052631578947 0.04295769230769231
0.1618131578947369 0.01722368421052631 0.04295769230769231
0.1618131578947369 0.008186842105263157 0.04295769230769231
0.1212030719192322 0.04879692812529039 0.04677880140880107
0.09495978351101234 0.03250064091391163 0.001364241392396233
0.1618131578947369 0.03529736842105263 0.03419615384615385
0.09850740159697888 0.05046436050944279 0.04291488603170222
0.1192772919957747 0.04288269502155399 0.0444091702409785
0.1403434342945989 0.02965656572707981 0.07087123744936617
0.1618131578947369 0.02626052631578947 0.03419615384615385
0.1290194869444723 0.04098051585413792 0.05209244151558333
0.1618131578947369 0.07144473684210526 0.09552692307692309
0.1484402747562152 0.02155972523097879 0.06711775135338963
0.1349221924823475 0.03507780750566511 0.06552523645220988
0.1618131578947369 0.01722368421052631 0.03419615384615385
0.1618131578947369 0.008186842105263157 0.03419615384615385
0.1618131578947369 0.03529736842105263 0.02543461538461539
0.143153264147695 0.03475209952352584 0.06648074815698343
0.1618131578947369 0.02626052631578947 0.02543461538461539
0.1618131578947369 0.01722368421052631 0.02543461538461539
0.1437394736842105 0.008186842105263157 0.08676538461538462
0.1265474770337596 0.0350213450686108 0.04936129846892475
0.1370640611695542 0.02347423692999771 0.06623330855846367
0.1618131578947369 0.008186842105263157 0.02543461538461539
0.1170820281463306 0.04859663071023932 0.005152011828121855
0.1465895782258636 0.02341042176486003 0.06928800941672017
0.1437394736842105 0.008186842105263157 0.09552692307692309
0.1347026315789474 0.008186842105263157 0.09552692307692309
0.1527763157894737 0.008186842105263157 0.08676538461538462
0.1527763157894737 0.008186842105263157 0.09552692307692309
0.1465257631020492 0.03293593879785164 0.06623330858750948
0.1618131578947369 0.03529736842105263 0.01667307692307693
0.1618131578947369 0.02626052631578947 0.01667307692307693
0.1618131578947369 0.01722368421052631 0.01667307692307693
0.1149202038930468 0.04719817993378163 0.04172172711844618
0.1007671914372223 0.06923280857185976 0.01396602764787607
0.1305204332020241 0.02859332705903496 0.04049901530904584
0.1618131578947369 0.008186842105263157 0.01667307692307693
0.1618131578947369 0.03529736842105263 0.007911538461538463
0.1324274647587227 0.02753378261100682 0.05459478106377466
0.1618131578947369 0.02626052631578947 0.007911538461538463
0.1424662174243204 0.03757253523449847 0.05459478107582482
0.1618131578947369 0.01722368421052631 0.007911538461538463
0.1618131578947369 0.008186842105263157 0.007911538461538463
0.1527763157894737 0.008186842105263157 0.01667307692307693
0.09529906089691906 0.03944341844038886 0.03192285017878508
0.1240114962667116 0.04598850400166734 0.04915752007990773
0.1527763157894737 0.008186842105263157 0.02543461538461539
0.1527763157894737 0.008186842105263157 0.03419615384615385
0.1347026315789474 0.008186842105263157 0.08676538461538462
0.1179998093574631 0.06233701097291237 0.03926023471517607
0.08774306553678635 0.04443091536032812 0.02425786480591161
0.1527763157894737 0.008186842105263157 0.04295769230769231
0.1127244112215602 0.02565366386225078 0.0142019766356297
0.107662989046998 0.05200019060858405 0.03926023479161216
0.1618131578947369 0.07144473684210526 0.08676538461538462
0.1618131578947369 0.02626052631578947 0.08676538461538462
0.1527763157894737 0.008186842105263157 0.05171923076923078
0.08738527349648945 0.03332922680268749 0.02826029565419034
0.09222573245740157 0.03275237715028916 0.027903588758846
0.1527763157894737 0.008186842105263157 0.06048076923076924
0.13095740661817 0.04808977619358135 0.04533642413067934
0.1146217540569075 0.06455398816119833 0.0316741965157303
0.1527763157894737 0.008186842105263157 0.0692423076923077
0.1527763157894737 0.008186842105263157 0.07800384615384616
0.1347026315789474 0.008186842105263157 0.03419615384615385
0.1437394736842105 0.008186842105263157 0.03419615384615385
0.1618131578947369 0.008186842105263157 0.09552692307692309
0.1369749677027879 0.03954007318298061 0.05694418053915897
0.1512054547388694 0.01879454522657708 0.02817743868266454
0.09275326023275632 0.02953039688937024 0.02431287828777398
0.148838723062659 0.02116127693076147 0.01785581941977024
0.128324937997326 0.03130944799310895 0.04553648682447093
0.1016216692038253 0.0948137471583403 0.02898293868817832
0.1456209829901657 0.02437901702645347 0.0131940823048013
0.08761846582227492 0.0270566474259435 0.0206687376687
0.1393565110534003 0.03064348899042141 0.0002655080508041819
0.1378129045557239 0.03947620227070487 0.002222324407879002
0.1467164711282735 0.03440300114432778 0.06257607311430916
0.1347026315789474 0.008186842105263157 0.04295769230769231
0.1437394736842105 0.008186842105263157 0.04295769230769231
0.1448396791196828 0.02516032086898444 0.07052260599281114
0.08977111417982962 0.05056860712676953 0.008907795525705819
0.1029525315602978 0.0725012838901135 0.03315580931160195
0.1347026315789474 0.008186842105263157 0.05171923076923078
0.1437394736842105 0.008186842105263157 0.05171923076923078
0.1347026315789474 0.008186842105263157 0.06048076923076924
0.1079041155826241 0.04248519027748315 0.03374628888407692
0.1123894954685344 0.04401963417945306 0.03750185226007897
0.1437394736842105 0.008186842105263157 0.06048076923076924
0.1347026315789474 0.008186842105263157 0.0692423076923077
0.1437394736842105 0.008186842105263157 0.0692423076923077
0.1347026315789474 0.008186842105263157 0.07800384615384616
0.1437394736842105 0.008186842105263157 0.07800384615384616
0.1395689505114413 0.09426219279875134 0.006344994773619775
0.103737990629869 0.04933866634247072 0.03499862225108955
0.1347026315789474 0.008186842105263157 0.007911538461538463
0.120221743474681 0.08869190267322076 0.04084558644281215
0.1437394736842105 0.008186842105263157 0.007911538461538463
0.1202217434267927 0.08130809732549273 0.04084558645424167
0.1038994603745779 0.03571666894090861 0.002990345620442744
0.1128785950777541 0.08000861274710026 0.03878317258197984
0.1527763157894737 0.008186842105263157 0.1042884615384616
0.1347026315789474 0.008186842105263157 0.1042884615384616
0.1618131578947369 0.03529736842105263 0.08676538461538462
0.09260035813449796 0.02604492300245911 0.0175489929476477
0.1352479004510911 0.02684673588768351 0.06648074812236023
0.125980365895711 0.05761050451521096 0.0375018521721076
0.1349786549730393 0.04345252298756964 0.04936129829951737
0.1347026315789474 0.008186842105263157 0.01667307692307693
0.133819735860593 0.03618026381437495 0.06034324874555502
0.09948547712907538 0.04921234819740164 0.02466345419033327
0.1618131578947369 0.01722368421052631 0.09552692307692309
0.08758029337687319 0.02701408498064982 0.01244958931942045
0.1437394736842105 0.008186842105263157 0.01667307692307693
0.1320062517996627 0.02874468900125514 0.009188773481744053
0.1416992404867726 0.02830075948265862 0.07112577258164331
0.1618131578947369 0.06240789473684209 0.1042884615384616
0.1347026315789474 0.008186842105263157 0.02543461538461539
0.1437394736842105 0.008186842105263157 0.02543461538461539
0.1202043555528539 0.02285774110634318 0.01765786622909192
0.1195356394944086 0.07149259837082826 0.04291488598837233
0.1618131578947369 0.05337105263157894 0.1042884615384616
0.1123283509171787 0.02795598699813499 0.01116012402834087
0.1618131578947369 0.04433421052631578 0.1042884615384616
0.1618131578947369 0.06240789473684209 0.09552692307692309
0.1618131578947369 0.05337105263157894 0.09552692307692309
0.1618131578947369 0.04433421052631578 0.09552692307692309
0.1618131578947369 0.06240789473684209 0.08676538461538462
[...]
      <PointData>
        <DataArray type="UInt64" Name="type" format="ascii">
1
1
0
1
1
1
1
1
0
1
1
1
1
1
1
1
0
0
1
1
1
1
0
1
1
1
1
1
1
0
1
1
1
1
1
0
0
0
1
1
0
1
1
1
0
1
0
1
1
0
0
0
1
0
0
0
1
1
0
1
1
0
0
0
0
1
0
0
0
1
1
1
0
0
1
0
1
0
0
0
1
1
0
0
0
1
1
0
1
1
0
0
0
1
1
0
1
1
0
0
0
0
0
1
1
1
1
1
1
1
1
1
1
1
0
0
1
1
1
0
0
0
1
1
0
0
0
0
0
1
1
0
1
0
1
1
1
0
0
0
1
1
1
1
0
1
1
0
1
0
1
1
0
0
0
1
1
0
1
0
0
0
0
0
0
1
0
1
1
1
1
1
0
1
1
1
1
1
1
1
1
0
0
0
0
0
0
0
0
1
0
1
1
0
1
0
1
0
0
0
0
0
0
0
0
1
1
0
0
0
0
1
0
1
1
0
1
0
1
1
1
0
0
0
0
1
0
0
0
0
0
0
0
0
1
1
1
1
1
1
1
1
0
1
1
0
0
1
1
1
0
0
1
0
0
0
1
1
0
0
1
1
1
0
0
0
0
1
1
1
0
1
0
0
0
0
0
1
1
0
0
0
0
0
1
0
0
0
0
0
0
1
1
0
0
0
0
0
1
1
0
0
0
0
0
1
1
0
0
0
0
0
1
1
1
1
1
1
1
1
1
1
1
1
1
0
0
0
0
0
1
1
0
0
1
0
0
0
1
0
0
0
0
0
1
1
0
0
1
0
0
0
0
1
0
1
0
1
0
1
1
1
1
1
0
1
0
0
0
1
1
1
1
1
1
1
1
1
1
1
1
1
1
1
1
1
1
1
1
1
1
1
1
1
1
1
1
1
1
1
1
1
1
1
1
1
1
1
1
1
1
1
1
1
1
1
1
1
1
1
1
1
1
1
1
1
1
1
1
1
1
1
1
1
1
1
1
1
1
1
1
1
1
1
1
1
1
1
1
1
0
0
1
0
0
0
0
1
0
1
1
0
1
1
0
0
0
0
0
0
0
1
1
1
1
1
1
0
0
0
0
0
0
0
0
1
1
1
1
0
0
0
0
1
1
1
1
1
1
1
1
1
1
1
1
1
1
1
1
1
1
1
1
1
1
1
1
1
1
1
1
1
1
1
1
1
1
1
1
1
1
1
1
1
1
1
1
1
1
1
1
1
1
1
1
0
1
1
0
1
1
1
1
1
1
1
1
1
1
1
1
1
1
1
1
1
1
1
1
1
1
1
1
1
1
1
1
1
1
1
1
1
1
1
1
1
1
1
1
1
1
1
1
1
1
1
1
1
1
1
1
1
1
1
1
1
1
1
1
1
0
0
0
0
0
1
1
0
0
0
0
1
1
1
1
1
1
1
1
1
0
0
0
1
0
0
0
1
0
0
0
0
0
0
0
0
1
1
0
0
0
0
0
0
0
0
0
0
0
1
1
1
1
1
0
0
0
0
1
0
0
1
1
1
1
1
1
1
0
0
0
0
1
1
1
1
1
1
1
0
0
0
1
1
1
1
1
1
1
0
1
1
0
1
1
1
1
1
1
1
1
1
0
1
1
1
0
1
0
0
1
1
1
1
1
1
1
1
1
1
1
1
1
1
1
1
1
1
1
1
1
1
1
1
1
1
1
1
1
1
1
1
1
1
1
1
1
1
1
1
1
1
1
1
1
1
1
1
1
1
1
1
1
1
1
1
1
1
1
1
1
1
1
1
1
1
1
1
1
1
1
1
1
1
1
1
1
1
1
1
1
1
1
1
1
1
1
1
1
1
1
1
1
1
1
1
1
1
1
1
1
1
1
1
1
1
1
1
1
1
1
1
1
1
1
1
1
1
1
1
1
1
1
1
1
1
1
1
1
1
1
1
1
0
1
1
1
1
1
1
0
0
0
0
0
0
0
0
0
0
0
1
1
1
1
1
1
1
1
1
1
1
1
1
1
1
1
1
1
1
1
1
1
1
1
1
1
1
1
1
1
1
1
1
1
1
1
1
1
1
1
1
1
1
1
1
1
1
1
1
1
1
1
1
1
1
1
1
1
1
1
1
1
1
1
1
1
1
1
1
1
1
1
1
1
1
1
1
1
1
1
1
1
1
1
1
1
1
1
1
1
1
1
1
1
1
1
0
1
1
1
1
1
1
1
1
1
1
1
1
1
1
1
1
1
1
1
1
1
1
1
0
0
0
0
0
1
0
0
1
1
1
1
1
1
1
1
1
1
1
0
0
0
0
0
0
0
0
0
0
0
0
0
0
1
1
1
1
1
1
1
1
1
1
1
1
0
1
1
1
1
1
1
1
1
1
1
1
1
1
1
1
1
1
1
1
1
1
0
0
0
0
0
0
0
0
0
0
0
0
0
1
1
1
1
1
0
0
0
0
0
0
0
0
0
0
0
0
0
0
0
0
0
0
0
0
0
0
0
0
0
0
0
0
0
0
0
0
0
0
0
0
0
0
0
0
0
0
0
0
0
0
0
0
0
0
0
0
0
0
0
0
0
0
0
0
0
0
0
0
0
0
0
0
0
0
0
0
0
0
0
0
0
0
0
0
0
0
0
0
0
0
0
0
0
0
0
0
0
0
0
0
0
0
0
0
0
0
0
0
0
0
0
0
0
1
1
1
1
1
1
1
1
1
1
0
0
0
0
0
0
0
0
0
0
0
0
0
0
1
1
0
0
1
1
1
1
1
1
1
1
1
1
1
1
1
1
1
1
1
1
1
1
1
1
1
1
1
1
1
0
1
0
0
1
1
1
1
1
1
1
1
1
1
1
1
0
0
0
0
0
0
1
1
0
0
0
0
1
1
1
1
1
1
0
0
0
1
0
0
1
1
0
0
0
1
0
0
0
0
0
0
0
0
0
0
0
0
0
0
0
1
0
0
1
0
0
0
0
1
0
0
0
0
0
0
0
0
0
0
0
0
0
0
0
0
0
0
0
0
1
0
0
0
0
1
1
1
1
1
1
1
1
1
1
1
1
1
1
1
1
1
1
1
1
1
1
1
1
1
1
1
0
0
0
0
1
1
1
1
0
0
0
0
0
0
0
0
0
0
0
0
0
0
0
0
0
0
1
1
1
1
1
1
0
1
0
0
0
0
0
0
0
0
0
0
0
0
0
0
0
0
0
0
0
0
0
0
0
0
0
0
0
0
0
0
0
0
0
0
0
0
0
0
0
0
0
0
0
0
0
0
0
0
0
0
        </DataArray>
        <DataArray type="Float64" Name="density" format="ascii">
1000.455595486637
998.1193657089718
1000
1006.302250813945
1014.541374682603
997.7589546117289
997.7589541525246
999.0681270053567
1000
999.0681270576952
1006.302250805513
1011.161880037013
1001.132851848174
1001.132851613809
1001.495167800785
997.9315963534311
1000
1000
1001.251617662966
1001.251617569567
1002.369708128841
1001.285582686169
1000
1001.28558254228
997.2563507677264
998.5092475723462
1000.759954396986
1000.851693245071
1000.435881652248
1000
1001.610881666605
1001.943615298085
1001.610881469219
997.370501069475
999.5966447131301
1000
1000
1000
1001.09367446062
1000.735882376468
1000
1000.595522249771
999.2395260394865
1001.229784266726
1000.356401895369
998.9305629928801
1000
998.3062379624936
1000.28978273602
1000
1000
1000
1000.450676966019
1000.979090419657
1000.920776929472
1000
1001.694456492734
999.7789212020944
1000.369019572515
1002.518951209875
1000.903557899047
1000
1000
1000
1000
999.7789213391262
1003.129664596795
1000.918671054662
1000.83514639315
1000.032343879174
1004.274524178745
1000.470268695332
1000.211195462301
1014.463287724418
999.2281891740112
1000.09290674193
999.228189119376
1000.663234000267
1000.178516708665
1000.835146448523
1001.693173827871
1002.110880151027
1000.920777015796
1000
1000
1000.00454511173
999.7301474750452
1000
1002.303820301746
1000.004545150167
1000
1000
1000
1002.938360575184
1001.442984982397
1000
1000.128293273394
999.8554184646318
1000
1000
1000
1000.356402096965
1000
999.5889877473082
1000.731904387472
1000.12215875535
996.7177159552288
997.9267968570213
1001.267628280792
1000.638090289379
996.3653526306681
998.4111023326811
999.5966437496377
999.0765892615248
1000
1000
999.6836139014659
1000.066301498028
1003.26191307287
1000
1000
1000
1001.258431397255
997.5621008280091
1000
1000
1000
1000
1000
1007.157132553754
1000.435881725032
1014.463287708472
998.5119678297527
1000.092906853467
998.5119678904368
1000.835027602588
998.6393633309076
1000
1000
1000
991.8356222998741
1000.450676891587
997.5621006450195
1001.694456070824
1003.129664375398
998.3174505165939
995.8653244245811
1000
1008.566390846173
1000.918671153518
999.8556368615652
1001.527513254985
1000
1000
1000.979090536868
999.9632162544357
1000.595522644132
1000
1002.758672547871
1000
1000
1000
1000
1000
1000
999.8556357399125
1000
998.4200088593797
999.5889880900016
997.7055333828298
999.0205818229073
998.6393633763989
1000
997.7055338292889
1001.188075750019
997.956503180185
1002.892955881307
998.6928938072343
1000.078425214123
995.806634320955
998.3536348366063
1000
1000
1000
1000
1000
1000
1000
1000
1002.892955811943
1000
1000.218748630266
998.0716311581442
1000
998.6928938038897
1000
1001.267628073897
1000
1000
1000
1000
1000
1000
1007.303827219745
1005.050656948107
1000.462612306974
1000.032343799837
1000
1000
1000
1000
1000.135307090796
1000
1000.462612274257
997.6264687101404
1000
1003.260038495992
1000
999.8062520832111
1001.309301209348
999.0765891782387
1000
1000
1000
1007.303827109796
1001.121610470476
1000
1000
1000
1000
1000
1000
1000.663233941665
1005.05065687044
998.5977151575273
1001.47975600507
1000.128293412279
998.0426239390175
998.5977152225367
997.9267969021887
1001.097921582434
1002.537242914907
1000
999.3228098377805
998.1193659689658
1000
1000
1001.336403622988
1001.336405148903
997.7809148706936
1000
1000
999.5904190240756
1000
1000
1000
1001.001663382853
997.9315963720981
1006.123521836501
1000
998.0822700827416
998.0822698978218
1000.265877272113
1000
1000
1005.050656920398
1000
997.580787287784
978.3446861886504
982.0292527564146
1000
998.1591547222295
1009.352364992109
1023.062870787141
1015.36288865727
1008.564279666001
1007.303827741494
998.1591545414345
1003.196318977733
1000
1000
1000
1000
1000
1003.196318959026
1000
1000
1000
1000
1000
1000
998.6902309365856
999.2395256334444
1000
1000.058990682778
1000
1000
1000
1001.267628241247
998.6902310646676
1000
1000
1000
1000
1000
998.6393634149507
999.8865434320121
1000
1000
1000
1000
1000
1002.892955572516
1002.132637293705
999.8865434291021
1001.183116661483
1001.183116862221
998.0260440696993
1000.453710224695
1001.316190427575
1002.673106480563
999.6130359376833
997.5807864590363
985.7928962618095
1001.969629152573
1006.12352177994
1000
1015.362888585278
1023.062870511264
1009.352364621319
1001.969628518316
997.1944352298819
1000
1000
1000.47026838585
1000
1000
1000
993.9935822039195
1000
1000
1000
1000
1000.05899070979
999.3506802968296
992.8202429847813
1000
1000
1002.390364443489
1000
1000
1000
1000
1000.675205115748
1000
1000.45559525106
1000
1001.994433223205
1000
1000.195806993752
1002.369708008574
998.4200088019657
999.0205819676663
998.5092474729698
1000
1002.758673178961
1000
1000
1000
999.057538796275
1002.303820437657
999.9632158443792
997.1691374340726
1006.873316390975
992.5228716296506
994.8356073512098
998.0716311660459
1007.157132298
983.3701466264702
1002.267886963898
1004.010574307426
1005.452306309318
1000.135307260872
1004.337891760283
994.8356072169539
999.0575381236913
1001.908204782769
992.9897970205695
1001.994433497825
1001.908205127438
997.3705016214218
992.9897970949157
999.3506808900955
992.8202431155594
992.5228730897767
997.1691373559905
993.92419924231
996.3552436586735
999.8554187873899
1000.138626600756
1004.010570232638
997.4363014654705
1002.518951143109
997.6757489435303
1013.604616735695
1001.597687890794
1002.043134858603
996.3552437619887
999.6145528275396
1013.604616455019
1008.56445470495
994.8183329086831
997.9528896109132
1008.564451767933
1005.452305992744
1000.138626729148
1001.001664013778
996.4640632779273
1007.908421024979
1003.712398690593
1002.267887257128
998.578424793301
1003.261912857713
1002.83247223376
1007.908421264657
1001.59768765554
1001.693174004746
997.4759374953265
995.3777294452075
998.5119680252623
1000.39978029873
1000.399780649741
1000.195807313851
997.9668671353807
997.9668663435035
999.6120798894692
999.612079625947
999.8062524229249
1004.337891158427
1001.258430961229
995.8653247156835
993.9241996957926
1000.577984876183
1001.219466316736
1001.21946602305
1003.260038928595
997.9565034083188
997.4759374698752
999.0508638092776
999.3040450096091
1000
1000
999.0508635104744
1000
1000
1000
1000
1001.188076257119
1000
994.8183327286965
1002.043135315261
1000
997.4363012845629
1003.712397865775
1000
1000
1000
1000
1000
1000
1000
1002.953377980139
998.578424669885
999.3040455603599
1000.577985055307
1001.90526600495
1002.30871229814
1000
1000
1000
1000
1008.564279248236
1000
1000
1000
996.4640625425958
1000.735883020337
993.9935821416485
1002.30871156968
1000
1000
1000
1000
1000.066300660712
999.6145525892315
1000.735883017993
1001.905266235125
1002.938360764388
998.0426241966481
998.04262422532
1002.308711506642
1002.537244161656
998.3536344029804
1008.566390530074
996.3653529737938
1007.157131653837
1000.122158680975
1008.56639050302
1002.390364712075
1006.873315662633
996.3653529465467
999.7301471702774
983.3701462651227
1002.832472225327
1002.832472048084
995.8066324335183
997.9528893820285
991.8356225911893
995.3777305808894
1000.066301135102
1000.122159141382
999.6145525151537
1001.442985123349
991.8356230895298
998.3536351653865
995.8066341556696
1001.905266157471
993.9935824715325
1002.938360978104
999.7301470082709
1001.442984936207
997.6757492566747
1000.835027520823
1002.132637097047
1002.132637226732
1002.986295644777
1001.316190116096
1001.316190469472
1002.986295343074
1002.986295595113
999.6130360401747
999.6130361227433
997.6757489444952
1002.986295583283
997.4363012663824
1000
996.4640625873478
1002.537243975985
1000
997.4363014023861
1002.043134736473
1000.138626873499
985.7928957213627
1000.032343794319
1000.462612440655
1000.032343954708
1001.479755922064
999.2395255204436
1000.004544552882
1000.00454479654
1001.121610422697
1001.943615481641
1001.09367440355
997.6264686025285
1000.595522191698
1001.597687989137
999.3040454667649
999.8554186084193
1007.908421353509
1002.518950663648
1000.4358814727
994.8183326178663
997.562100627471
998.6928937812709
999.0508639823457
994.8183331237517
998.5119677142012
1000.470268877877
997.4759377065783
996.3552441757698
996.3552441458484
1007.908421589778
992.9897969193805
999.0508642049624
1000.577984845678
1002.110880234251
998.0716317240212
998.0716315781839
993.9241992025679
1004.274524077571
997.1944349182971
1000.675205041391
1002.953377588484
995.8653247077679
997.9668671520617
1003.261912787858
1003.261913248521
1002.986295590551
1002.986295404087
1002.986295507713
1002.986295334039
1001.001663767533
1002.369707774273
998.5092479517607
1006.302250780616
1000.735882544
999.2395259525003
997.9315962607607
996.4640634051875
997.5621010588194
1000
1000
1000
1006.123522114776
1003.129664699387
998.1193656852141
1002.938360599859
1000
1000
1000
1000
1002.303820622671
1002.308712113321
997.7589549624963
1000.122158808198
996.365352671698
1002.537243546732
1000.835027992754
1001.69317406267
991.8356223904361
1000
1000
1000
1008.566390279881
1000
1000
1000
999.9632161783865
1000
1000
1000.058990712544
1000
1000
1000
1000
1000
995.8066330647819
998.3536353371553
1000
1000
1007.303827705303
1005.050656930894
1000
1000
1000
1000
1000
1000
1008.564279638666
1001.13285189206
998.0426240254747
1002.390365038218
997.7055336156479
999.8556366548097
1015.362888260638
1023.062870477829
1009.352365011111
1014.463287851815
1004.337890737883
1000
1000
1006.873318943474
1001.994433673922
1000.12829366905
1001.442985100529
1001.336404434766
1004.010572466923
999.3506808875319
1000
1000
1000
1000
1002.75867248073
998.4200081128728
999.0205821485637
999.0575384315169
983.3701471994843
1000.453711428383
1007.157131158511
1000
1000
1000
1013.604616968271
992.8202429932634
992.52287209976
1001.693173371828
1000.455594239086
999.7301472459575
1002.267886826626
1000
997.9528895144366
999.8865433442758
1000
1002.518951218085
1000.135307059676
999.8062524999597
1005.452305744487
1001.908204815687
1001.188075748313
1003.712397527406
998.1591546347752
1003.196318970684
1000
997.1691376325259
997.3705013187524
995.3777302945637
1000
998.5784247297215
1000
1000
1002.673106343555
994.8356068338197
1000.195807359572
1001.258431468739
997.9565032265342
1008.564452105228
1003.260038385882
1000.399780188127
1001.694456224835
997.6757490911159
999.6130358876034
1001.31619016536
999.6145533736775
993.993582257798
1001.905265791513
1002.832472114853
1002.132637142045
1000.066301072098
1001.267628100501
1002.892955684932
998.6393633742794
1000.577984812635
997.3705017876077
1001.258431106038
1001.121610514843
1001.479755952801
992.989797136418
1001.316190152958
999.3040453496789
999.30404529509
998.0426242693211
998.5784246816474
996.4640628165646
995.3777303824324
1002.832471925404
1007.157131886682
1002.390364566509
996.4640632004458
1000.066301358045
995.8066342591995
999.6130359902194
1000.577984746917
991.8356227132562
1000.195807250592
1008.566390379755
1000.066301025947
999.8062521800497
999.614552874936
1001.316190353161
1001.908204705656
997.6757491330455
1000.46261242628
1001.693173673563
1002.308711874644
1000.462612090551
997.4363011560911
997.6757489226452
1001.943615248657
1001.442984882892
997.9528900019417
999.855418575206
1000.12215858349
993.9241994456962
1002.043134715904
993.9935820891779
1002.537243727691
1003.261913084258
997.9668668291287
1000.595522358068
1000.595522684447
997.956503210685
999.8062525639015
1000.135306980075
1000.435881448337
1000.735882788018
1001.597688356949
998.0426241480674
991.8356222996339
999.8554185864626
998.3536357226085
1001.442985201708
999.6130356975527
1001.597687644608
1002.938360310057
993.9935827111185
1001.905266007724
1001.908205249948
993.9241992946414
1002.267887014056
1003.26191306436
1008.56639089522
998.5119679129322
999.7301473164555
1000.13862687106
1000.435881844647
998.5119680443402
996.3653529446431
998.6393634239888
997.4363013213627
998.353634378419
998.6393632996085
1002.892955731099
999.6145530020426
1002.892955543119
1000.135307448299
997.9668666510577
998.6928939772039
1001.693173897538
998.6928933799875
1002.308712071764
1001.267628076422
1001.26762808569
1002.267886874172
1004.274524191036
995.8653242085165
1000.122159120132
999.7301471427577
995.8653253029423
996.3653527862798
998.5784248108002
992.9897969386797
1002.832472262309
1002.938360923506
1000.138626719594
1001.905265829068
1002.132637073592
1002.537243491408
1002.132637189016
997.956503537003
1000.577985022547
1006.873315834744
983.3701468193264
1000.835027868169
1000
997.4759371814963
1002.043135296617
997.475938066784
1002.11088014602
1000.462612469566
1001.093674433954
1000
1000
1000
1000
1035.541305600051
1036.546443229226
1000.170420880295
1000.134882543158
1000
1000
1000
1000.004544957771
993.9935819383325
1000.595522213061
1000.128293221906
996.355243954329
999.8554187295066
1000.67520515277
1001.597687767985
1000.435881437853
998.1193656848417
1002.953377538107
1001.001664020399
999.6145525774951
997.9668672720159
998.0716315703538
1002.04313461017
995.8653245568055
1000.138626476458
1001.905266290137
1002.267886762805
996.3552438982804
997.3705016457844
1002.832472123084
992.8202430406666
1000.066301132204
998.5784247685197
995.8653249081848
1001.47975611613
1002.953377976856
999.2395255516217
1004.337891450138
1000.066301128139
997.4759376305703
1002.892955896161
998.578424821605
1000.595522303314
1002.892955699581
998.6393630560807
998.5119675358047
998.5119677380575
996.4640633287427
999.304045544554
999.0575392055038
999.0205821219126
1007.908421467298
992.9897968539175
1000.462612216266
1001.121610458221
997.9668665700394
998.0716313386782
999.9632153605858
997.7589553686944
997.1944350354833
1003.260039069933
1000.032343892688
1013.604617133595
998.6393635200014
1001.093674531998
997.4759380328659
1006.302250489866
998.5092473151609
999.0508640664182
999.0508644101876
1002.110880163403
997.1691378071949
994.8356063813047
994.8183325535696
1000.45371180597
1002.518950243585
1002.518950817082
1000.577984953907
993.9241992986333
1002.83247222116
1001.905265961662
993.9935824187854
999.6145532546714
996.4640627170211
997.1944352775083
992.9897970728548
999.0508635426914
999.0508638325003
1002.518951388085
1000.138626704256
1002.518950995591
997.6264690196226
1002.04313516174
993.9241995487279
1007.908421032552
1002.26788722876
1000.453710247411
994.8183331502496
1000.435882014626
1000.675204985663
998.071630963864
996.3552436296949
996.3552438719946
1000
997.4363012620886
999.3040452188641
994.8183326329628
1007.908421344933
997.6264685669083
997.4759377840106
1001.267628191023
999.6130362573221
1001.31619037787
1002.132637321503
997.6757491793571
999.8554185575636
1000.577984908197
1000.462612294132
1000.435881804707
997.9668665407995
998.0716316501566
997.5621001826355
1001.258430924744
1001.994433164141
1000.455595499239
1002.390364427402
999.350681424254
1000
1000
1000
1000
1000
995.3777305543458
1000
1008.564279084883
1007.908421197131
997.9565037591263
1002.267887273853
998.5784247514948
1000.135307429748
999.806252146052
1001.908205302531
1000.004545072701
1000.19580710051
1000.138626375272
1003.712398951902
1015.362888376806
1023.062870029474
1000
1000
1000
1000
1000
1000
1000
1000
1000
1000
1000
1000.058990760636
1002.758673301589
998.6928936780456
1001.597688034832
998.4200092372714
992.9897971624912
1000.835027588478
1002.303820287418
1002.043134565152
1004.010567360381
983.3701465350518
1002.369707839062
997.9528891178956
1000
1008.564455808114
999.3040452918966
1006.873315086543
992.5228739569678
994.8183330283271
993.9241997686397
1003.261912953741
1003.26191254879
1001.267628272678
995.8653252643669
997.6757490381005
999.6130358997165
997.4363015041757
1001.316190329032
1002.132637124782
1004.274524130064
1000.595522379133
1000.03234372254
1001.188076700843
999.8554186319045
1001.943615696544
1000
1000
1000
1000
1000
1000
1000
1000
1000
1000
1000
1000
1000
1001.597688082512
1000.004544948853
1000.004545254071
1000.032344019805
1000.032343623999
1000
1000
1000
1000
1000
1000
1000
1038.272030375514
1036.546443258718
1035.541305625989
1028.443613255669
1031.156591859697
1017.143804552938
1000
1000.148754093287
1001.242999352608
1000
1000
1000.16676167989
1036.546443230378
1000
1038.272030361224
1000.000000603784
1000.166761679202
1000.000000603784
1000.134882543281
1000
1000.051999332969
1000
1038.272030344948
1017.143804530606
1000.166761679995
1000.109934694971
1000.134882543305
1017.143804478176
1031.156591797919
1000
1000
1000
1000.170420880325
1000.170420880517
1000
1035.541305638875
1000
1001.242999353372
1000.170420880552
1000.051999332943
1000.114227034475
1000.109934695384
1000
1000.114227034227
1035.541305651498
1000.109934695633
1000
1028.443613244019
1000.051999332846
1000.166761679393
1000
1000
1000.134882543318
1000.148754092769
1000.114227034607
1000
1038.846774757768
1000
1038.846774791393
1000
1000
1000
1000
1038.846774734255
1031.156591822852
1000
1000
1036.54644322717
1000
1000.148754091878
1038.846774728286
1000
1000.148754092577
1000
1028.443613263648