<VTKFile type="PolyData" version="1.0" byte_order="LittleEndian" header_type="UInt64">
  <PolyData>
    <Piece NumberOfPoints="2584" NumberOfVerts="2584">
      <Points>
        <DataArray type="Float64" Name="Points" NumberOfComponents="3" format="ascii">
0.03614873133570594 0.01683001997322609 0.03160776840261727
0.03692432006521775 0.02014057431352558 0.02161126039919849
0.1130561007689234 0.03509602302346088 0.07939360293153304
0.08144301578829251 0.07425853848727726 0.004528529438854535
0.05694389923036697 0.03509602302414979 0.0793936029321082
0.08093619448644711 0.0645533806226401 0.008046918016673914
0.08825322473186213 0.05799503943051584 0.01358945595708847
0.08174677526687001 0.05799503943053492 0.01358945595887767
0.08890892275271932 0.04730420192656896 0.02735921032600631
0.08109107724679063 0.04730420192840706 0.02735921032959141
0.07414846820340118 0.04739287633683428 0.02761048785858295
0.03509602302434301 0.05694389923112497 0.0793936029308745
0.06442795421696025 0.03194208707425202 0.07227235375374895
0.1102352624883396 0.04757290999258075 0.07839488863201789
0.08812186372633096 0.06012372920808266 0.001677010090134806
0.08187813627373863 0.06012372920716368 0.00167701009352413
0.08110574766307517 0.04766055401226482 0.01889037196752295
0.07504088181131868 0.0477523288107288 0.01857949935830958
0.0647156123040768 0.04799791392793441 0.02148709701912767
0.1131356024798592 0.04089494907398959 0.05710763223945525
0.05976473751138343 0.04757290999525173 0.07839488863427033
0.08097207413800507 0.04864147586107883 0.007318972564612367
0.07431369323983628 0.04857408193214935 0.008111308605006645
0.06447669095786833 0.04872409398687427 0.01069207982170325
0.08947570171120602 0.02777363941386676 0.04896793342922925
0.04008013369319272 0.04841098389561201 0.03807062696216345
0.04841098389674802 0.04008013369582137 0.03807062696047495
0.04757290999437793 0.05976473751089068 0.07839488863268952
0.1117046521210697 0.04857404834135312 0.05282333731930453
0.05868598316442436 0.05868598316724334 0.032378464917534
0.02690616236306823 0.01813468150485052 0.05381728810569969
0.08889425234077616 0.04766055400638251 0.01889037197148925
0.08078456077043629 0.0404581336414007 0.05237495163937721
0.08921543923050348 0.04045813364081895 0.05237495164024885
0.09615918843403876 0.06255236921229285 0.04690205172298702
0.07384081156386815 0.06255236921630353 0.04690205172343747
0.04167037655901447 0.041670376558829 0.07709997386659559
0.07231019606879502 0.04037356746539478 0.05248864823631523
0.08063922744670601 0.02770025935945837 0.02788038793081547
0.07308064934860746 0.04086196189935023 0.008882545961383789
0.08905708725586288 0.03957589106516287 0.02649891428347365
0.06570998128816695 0.04236311652421885 0.01252291090287227
0.08058043166065151 0.01879565188175342 0.0464441891197107
0.0717229013895456 0.01809333837367114 0.0485154699098734
0.07300742426712775 0.02692905875485432 0.03005420372359962
0.07934134744443773 0.03094941065689397 0.0007334495742947927
0.0569940831428473 0.04198084995514097 0.01649772418703713
0.09768980393110306 0.04037356746575831 0.05248864823674192
0.03373714774773736 0.04951675163935432 0.07742995308536336
0.08922979714798687 0.06252412983660249 0.046507207739758
0.01813468150626736 0.02690616236635286 0.05381728810782405
0.08036489267931268 0.01838299340451473 0.03668443539881464
0.02799550952925123 0.02799550952523467 0.04902788163557073
0.04429323919768427 0.02866927651061821 0.02508828274222509
0.05527794661632438 0.02315937009539134 0.02129517421655198
0.06401831715740595 0.02824091354024247 0.01540989466588236
0.02848649198622215 0.04573462133384128 0.04426707225171813
0.08902792586166869 0.04864147586307058 0.007318972555622615
0.04431949807280237 0.02596786626029806 0.03258388682629953
0.0958515317992346 0.04739287633570491 0.02761048785128648
0.04951675163671441 0.03373714774731218 0.07742995308693479
0.08077020285178148 0.06252412983525769 0.04650720774048558
0.07971380098014738 0.01823376551987064 0.02542925470182197
0.04573462133099738 0.0284864919848195 0.04426707224927991
0.1106591734610566 0.05934082653900191 0.02170208980712479
0.05836710026250723 0.04834444337559695 0.03309259724344622
0.1209093241839498 0.04909067581435262 0.05354720019755376
0.07250817818835129 0.02649468455012016 0.0367132018605787
0.07308054582184977 0.04745371343500188 0.04841815733482892
0.06630062811975204 0.04654259021591853 0.07534663749230297
0.1075554944984796 0.01877715068723377 0.07917720639545417
0.1036993718796511 0.04654259021202448 0.07534663748909017
0.06244450550131481 0.01877715069057956 0.07917720639109399
0.08079975679091435 0.02615411061339843 0.03583635088626444
0.04864766897623726 0.04039595437793542 0.01415222750623118
0.04654259021334015 0.06630062811939762 0.07534663749122253
0.05748550673844136 0.04374120891189003 0.005550854282352407
0.06618245624636823 0.04439933818830046 0.0005848967731642149
0.01877715069033254 0.06244450550115324 0.07917720639429887
0.1250874492319357 0.01898923352023013 0.0797212235077953
0.07172049002167236 0.01830730515744211 0.05686176777077892
0.08061071726545616 0.01870195204069187 0.05559822503511253
0.05531398083937545 0.02327100290346115 0.03019748948832555
0.05091033091715543 0.04085047802382556 0.004953128118911319
0.09691945417506838 0.04745371343736978 0.04841815733515218
0.08179915114125166 0.02727612468932579 0.01423371307435868
0.07419143298747329 0.02433578395540149 0.01835112458965051
0.04491255077157878 0.01898923351893459 0.07972122351104488
0.01898923351944164 0.04491255077077522 0.07972122351013186
0.0320921679212346 0.03997376741686545 0.07793367542967944
0.03997376741718991 0.03209216792234995 0.07793367542934371
0.117541631684155 0.05245836831716945 0.07488901819627124
0.05245836831796336 0.05245836831711325 0.07488901819842175
0.1037103807780105 0.05993511369812687 0.0169950967848497
0.0962270402492945 0.05852785807844976 0.01488457335377567
0.08132785627713791 0.0235612750874353 0.01964169254061632
0.08110219807317974 0.04565637068718423 0.07418428619574423
0.07294693301264059 0.03545764034502421 0.07523991678477326
0.09705306698730429 0.03545764034383856 0.07523991678947431
0.09607028558871149 0.04589109047098471 0.07375969812000331
0.07392971441275696 0.04589109047346739 0.07375969811920638
0.04589109047057675 0.07392971441106035 0.07375969812250112
0.03545764034506883 0.07294693301208298 0.07523991678551838
0.1097368682635427 0.05362459921522775 0.07309667380531325
0.06026313173633416 0.05362459921138241 0.07309667380709295
0.1106618307720383 0.05933816922578825 0.0115165609786015
0.1035241550743622 0.06029738915284143 0.005703240280935032
0.09536671142918218 0.05957295083219539 0.003257426035334666
0.1220595510088908 0.04794044898483303 0.03429440913365032
0.1107432356850891 0.04810941622594897 0.02347088444076199
0.1052843876994773 0.04799791392785556 0.02148709702105643
0.0949591181835153 0.0477523288048233 0.01857949936560386
0.06426669755628538 0.02506758795250257 0.02587539508619975
0.07411113059302187 0.02298408403828404 0.02294915746758328
0.05362459921041213 0.06026313173507684 0.07309667380881466
0.0713434607159306 0.01909447840241639 0.07747739434488511
0.06474751462960139 0.04786949294808227 0.04887887078417884
0.09865653928262892 0.0190944784053413 0.07747739434971573
0.01909447840669882 0.07134346071799393 0.07747739434750896
0.06730110125995542 0.06730110125840633 0.071299142045733
0.1212723253042813 0.04872767469441241 0.02525614407720155
0.1100806758742637 0.04893176120484283 0.01489283970074027
0.10552330905943 0.0487240939834462 0.01069207981493028
0.09568630675714192 0.04857408193368735 0.008111308600490636
0.1163754007844654 0.06026313173686821 0.07309667380598761
0.1052524853711991 0.04786949294996616 0.0488788707824499
0.08899611402763231 0.03488762833760529 0.07510605543270756
0.01904351449884133 0.0356116851915603 0.07957588291966841
0.08130571932369771 0.04038235306722456 0.006775379946548435
0.1207944142186039 0.04920558577929979 0.01706031107307288
0.07118507687112931 0.01706126583701484 0.02879585349408744
0.06330433659814812 0.01664843014904856 0.03245792737993815
0.05390318355243076 0.01726238386306648 0.03731753500289933
0.03561168519078871 0.01904351449968731 0.07957588291557087
0.04033208514666998 0.02620636749851476 0.01487633506366131
0.08903664599341263 0.03978176893532305 0.01663714016271261
0.08946173820806627 0.02716616675800331 0.04189784714467468
0.08064487885067258 0.01875472290444104 0.06285003011901857
0.07169399463044379 0.01875752374243286 0.06407205095189937
0.04834444337228473 0.05836710026114174 0.03309259723588912
0.01781692847283599 0.04433880140513804 0.05100789178482488
0.11357732179279 0.03311232020744755 0.07437772522766724
0.08078875314345221 0.07304436828085914 0.03882434676136896
0.0885943146465836 0.04723809615720438 0.04646333679084743
0.08140568535428888 0.04723809615804336 0.04646333678749143
0.05642267820683066 0.0331123202081699 0.07437772522836804
0.03311232020624246 0.05642267820723391 0.07437772523054023
0.05253897456942393 0.02992104219963853 0.003516537351761533
0.03708012826949603 0.02469594050471285 0.01265571948105361
0.1207944431359265 0.04183931171659046 0.05432721909509594
0.08183940609866408 0.06578310241682271 0.0708002719986071
0.0443388014081377 0.01781692847354666 0.05100789178346423
0.07144473684210526 0.008186842105263157 0.01667307692307693
0.01809333837030122 0.0717229013975227 0.04851546991589815
0.05935458460170872 0.066216931433319 0.02844917393820317
0.07273609886533304 0.03984466240027816 0.01878387353155087
0.08096335400804808 0.03978176893791741 0.01663714016125263
0.02993749923604223 0.02993749923627173 0.07660662453128148
0.04794044898830917 0.04794044898983468 0.03429440914213909
0.06240789473684209 0.008186842105263157 0.01667307692307693
0.05337105263157894 0.008186842105263157 0.01667307692307693
0.04433421052631578 0.008186842105263157 0.01667307692307693
0.03529736842105263 0.008186842105263157 0.01667307692307693
[...]
      <PointData>
        <DataArray type="UInt64" Name="type" format="ascii">
1
1
1
1
1
1
1
1
1
1
1
1
1
1
1
1
1
1
1
1
1
1
1
1
1
1
1
1
1
1
1
1
1
1
1
1
1
1
1
1
1
1
1
1
1
1
1
1
1
1
1
1
1
1
1
1
1
1
1
1
1
1
1
1
1
1
1
1
1
1
1
1
1
1
1
1
1
1
1
1
1
1
1
1
1
1
1
1
1
1
1
1
1
1
1
1
1
1
1
1
1
1
1
1
1
1
1
1
1
1
1
1
1
1
1
1
1
1
1
1
1
1
1
1
1
1
1
1
1
1
1
1
1
1
1
1
1
1
1
1
1
1
1
1
1
1
1
1
1
1
1
1
0
1
1
1
1
1
1
0
0
0
0
1
1
1
1
1
1
1
1
1
1
1
1
1
1
1
1
1
1
1
1
1
1
1
1
1
1
1
0
0
1
1
1
0
0
1
1
1
1
1
1
1
1
1
1
1
1
1
1
1
1
1
1
1
1
1
1
1
1
1
1
1
1
1
1
1
1
1
1
1
1
1
1
1
1
1
1
1
1
1
1
1
1
1
1
1
1
1
1
1
1
1
1
1
1
1
1
1
1
1
1
1
1
1
1
1
1
1
1
1
1
1
1
1
1
1
1
1
1
1
1
1
1
1
1
1
1
1
1
1
0
1
1
0
1
0
1
1
1
1
1
1
1
1
1
1
1
0
0
1
1
1
1
1
1
1
1
1
1
1
1
1
1
1
1
1
1
1
0
1
1
1
0
0
0
0
0
1
0
1
0
1
1
1
1
1
0
0
1
1
1
1
1
1
1
1
1
1
1
1
1
1
1
1
1
1
1
1
1
1
1
1
1
0
1
1
0
0
1
1
1
0
1
1
1
1
1
1
1
1
1
1
1
1
1
1
1
1
1
0
0
0
0
0
1
1
1
1
0
0
1
1
0
0
0
0
0
0
1
1
1
0
1
1
1
1
1
1
1
1
1
1
1
1
1
1
1
1
1
1
1
1
1
1
1
1
1
1
1
1
1
1
1
1
1
1
1
1
1
1
1
1
1
1
1
1
1
1
1
1
1
1
1
1
1
1
1
1
1
1
1
1
1
1
1
1
1
1
1
1
1
1
1
0
0
1
0
0
0
1
1
1
1
1
1
1
0
0
1
1
1
0
0
0
1
1
1
1
1
1
1
1
1
1
1
1
0
0
0
0
0
1
1
1
1
1
0
0
0
0
0
1
1
0
0
0
0
0
1
1
1
1
0
0
0
0
0
1
1
0
0
0
0
0
1
1
0
0
0
0
0
1
1
1
1
1
1
1
1
1
1
1
1
1
1
0
0
0
0
0
0
1
1
1
1
1
1
0
0
0
1
0
0
0
0
0
0
0
0
1
1
1
1
1
0
0
1
1
1
1
1
0
1
1
1
0
0
0
0
0
0
0
0
1
1
1
1
1
1
1
1
1
1
0
0
0
0
0
0
1
1
1
1
1
1
1
1
1
1
1
1
1
1
1
1
1
1
1
1
1
1
1
1
1
1
1
1
1
1
1
1
0
1
1
0
1
1
1
1
1
1
1
1
1
1
1
1
1
1
1
1
1
1
1
1
1
1
1
1
1
1
1
1
1
1
1
1
1
1
0
1
1
1
1
1
0
1
1
1
1
0
0
0
0
0
1
1
1
1
1
1
1
1
1
1
1
1
1
1
1
0
1
1
1
1
1
0
1
1
1
1
1
1
0
1
0
0
1
1
1
1
1
1
1
1
1
1
1
0
1
1
1
1
1
1
1
1
1
1
1
1
1
1
0
0
1
1
1
1
1
1
1
1
1
1
1
1
1
1
1
1
1
1
1
1
1
1
1
1
1
1
1
1
1
1
1
0
0
0
0
0
0
0
0
0
0
0
0
0
0
0
0
1
0
0
1
0
0
0
0
0
0
0
0
0
0
0
0
0
0
0
0
0
0
0
0
0
0
0
0
0
0
0
0
0
0
0
0
0
0
0
0
0
0
1
1
1
1
1
1
1
1
1
1
1
1
1
1
1
1
1
1
1
1
1
1
1
1
1
1
1
1
1
1
1
1
1
1
1
1
1
1
1
1
1
1
1
1
1
1
1
1
1
1
1
1
1
1
1
1
1
1
1
1
1
1
1
1
1
1
1
1
1
1
1
1
1
1
1
1
1
1
1
1
1
1
1
1
1
1
1
1
1
1
1
1
1
1
1
1
1
1
1
1
1
1
1
1
1
1
1
1
1
1
1
1
1
1
1
1
1
1
1
1
1
0
1
1
1
1
1
1
1
1
1
1
1
0
1
1
1
1
1
0
0
1
0
1
1
0
0
0
0
0
0
0
1
0
1
0
0
0
0
0
0
1
1
1
0
0
0
0
0
0
0
0
0
0
0
0
0
0
0
0
0
0
0
0
0
0
0
0
0
0
0
0
0
0
0
1
1
1
1
1
1
1
0
0
0
1
0
0
0
0
0
0
1
1
0
0
0
1
1
1
1
1
1
0
1
1
1
1
0
0
1
1
1
1
1
1
1
0
1
1
0
1
1
1
1
1
0
1
0
1
0
1
1
1
1
1
1
1
1
1
1
1
1
0
0
1
0
0
0
0
0
0
0
0
0
0
0
0
0
0
0
0
0
0
0
1
1
1
1
1
1
1
1
1
1
1
1
1
1
1
1
1
1
1
1
1
1
1
1
1
1
1
1
1
1
1
1
1
1
1
1
1
1
1
1
1
1
1
1
1
1
1
1
1
1
1
1
0
0
0
0
0
0
0
0
0
0
0
0
0
0
1
1
1
1
1
1
1
1
1
1
1
1
1
1
1
1
1
1
1
1
1
1
1
1
1
1
1
1
1
1
1
1
1
1
1
1
1
1
1
1
1
1
1
1
1
1
1
1
1
1
1
1
1
1
1
1
1
1
1
1
1
1
1
1
1
1
1
1
1
1
1
1
1
1
1
1
1
1
1
1
1
1
1
1
1
1
1
1
1
1
1
1
1
1
1
1
1
1
1
1
1
1
1
1
1
1
1
1
1
1
1
1
1
1
1
1
1
1
1
1
1
1
1
1
1
1
1
1
1
1
1
1
1
1
1
1
1
1
1
1
1
1
1
1
1
1
1
1
1
1
1
1
1
1
1
1
1
1
1
1
1
1
1
1
1
1
1
1
1
1
1
1
1
1
1
1
1
1
1
1
1
1
1
1
0
0
1
1
1
1
1
1
1
1
1
1
1
1
1
1
1
1
1
1
1
1
1
1
1
1
1
1
1
1
1
1
1
1
1
1
1
1
1
1
1
1
1
1
1
1
1
1
1
1
1
1
1
1
1
1
1
1
1
1
1
1
1
1
1
1
0
0
0
0
1
1
1
1
1
1
1
1
1
1
1
1
1
1
1
1
1
1
0
0
1
1
0
1
1
0
1
0
0
1
1
1
1
1
1
0
0
0
0
0
0
0
0
1
1
1
1
1
1
1
0
0
0
0
0
0
0
1
1
1
1
1
1
1
1
1
1
1
1
1
1
1
1
1
1
1
1
1
1
1
1
1
1
1
1
1
1
1
1
1
1
1
1
0
1
1
1
1
0
1
1
1
1
1
1
1
1
0
0
1
0
0
1
1
0
0
0
0
1
1
1
1
1
1
1
1
1
0
1
1
1
1
1
1
1
1
1
1
1
1
1
1
1
1
1
0
0
1
1
1
1
0
0
1
1
1
1
1
1
1
1
1
1
1
1
1
1
1
1
1
1
1
1
1
1
1
1
1
1
1
1
1
1
1
1
1
1
1
1
1
1
1
1
1
1
1
1
1
1
1
1
1
1
1
1
1
1
1
1
1
1
1
1
1
1
1
1
1
1
1
1
1
1
1
1
1
1
1
1
1
1
1
1
1
1
1
1
1
1
1
1
1
1
1
1
1
1
1
1
1
1
1
1
1
1
1
1
1
1
1
1
1
1
1
1
1
1
1
0
0
0
0
0
0
1
1
1
1
1
1
1
1
1
1
1
1
1
1
1
1
1
1
1
1
1
1
1
1
1
1
1
1
1
1
1
1
1
1
1
1
1
1
1
1
1
1
1
1
1
1
1
1
0
0
0
0
0
0
0
0
0
1
1
1
1
1
1
1
1
1
1
1
1
1
1
1
1
1
1
1
1
1
1
1
1
1
1
1
1
1
1
1
1
1
1
1
1
1
1
1
1
1
1
1
1
1
1
1
1
1
1
1
1
1
1
1
1
1
1
1
1
1
1
1
1
1
1
1
1
1
1
1
1
1
1
1
1
1
1
1
1
1
1
1
1
1
1
1
1
1
1
1
1
1
1
1
1
1
1
1
1
1
1
1
1
1
1
1
1
1
1
1
1
1
1
1
1
1
1
1
1
1
1
1
1
1
1
1
1
1
1
1
1
1
1
1
1
1
1
1
1
1
1
1
1
1
1
1
1
1
1
1
1
1
1
1
1
1
1
1
1
1
1
1
1
1
1
1
1
1
1
1
1
1
1
1
1
1
1
1
1
1
1
1
1
0
1
1
1
1
1
1
1
1
1
1
1
0
0
1
1
1
1
0
0
1
1
1
1
1
1
1
1
1
0
0
0
0
0
0
1
0
0
0
0
0
0
1
1
1
1
1
1
1
1
1
1
1
1
1
1
1
1
1
1
1
1
1
1
0
0
1
1
0
0
0
0
0
0
0
0
1
1
1
1
1
1
1
1
1
1
1
1
1
1
1
1
1
1
1
1
1
1
1
1
1
1
1
1
1
1
1
1
1
1
1
1
1
1
1
1
1
1
1
1
1
1
1
1
1
1
1
1
1
1
1
1
1
1
1
1
1
1
1
1
1
1
1
1
1
1
1
1
1
1
1
1
1
1
1
1
1
1
1
1
1
1
1
1
1
1
1
1
1
1
1
1
1
1
1
1
1
1
1
1
1
1
1
1
1
1
1
1
1
1
1
1
1
1
1
1
1
1
1
1
1
1
1
1
1
1
1
1
1
1
1
1
1
1
1
1
1
1
1
1
1
1
1
1
1
1
1
1
1
1
1
1
1
1
1
1
1
1
1
1
1
1
1
1
1
1
1
1
1
1
1
1
1
1
1
1
1
1
1
1
1
1
1
1
1
1
1
1
1
1
1
1
1
1
1
1
1
1
1
1
1
1
1
1
1
1
1
1
1
1
1
1
1
1
1
1
1
1
1
1
1
1
1
1
1
1
1
1
1
0
0
0
0
1
0
1
0
0
0
0
0
0
0
1
0
0
1
0
1
0
1
0
1
0
0
0
1
1
1
0
0
0
1
0
1
1
1
1
1
1
1
1
1
1
1
1
1
1
1
1
1
1
1
0
1
1
1
1
0
1
1
1
0
1
1
1
1
1
1
1
0
0
0
0
1
0
0
0
0
0
0
0
0
1
1
0
1
1
1
1
0
0
0
1
1
1
1
0
0
0
0
0
0
0
1
1
1
0
1
0
1
0
0
0
0
0
1
0
1
0
0
0
1
0
0
1
0
0
0
1
0
0
0
0
0
0
0
0
1
0
0
0
0
1
1
0
1
1
0
1
1
0
1
0
0
1
1
0
0
1
1
1
0
0
0
1
0
0
1
0
1
0
0
0
0
1
0
0
0
0
0
0
0
0
0
0
1
0
0
0
0
0
0
0
0
0
1
0
0
0
0
0
0
0
0
0
0
0
0
1
1
1
1
1
1
1
1
1
0
1
0
0
0
0
0
0
0
0
0
0
0
0
0
1
0
0
0
0
0
0
0
0
1
0
0
0
0
1
1
1
1
1
1
1
1
0
0
0
1
0
0
0
0
0
0
1
0
1
        </DataArray>
        <DataArray type="Float64" Name="density" format="ascii">
1000.221949883578
984.9940675629967
999.8174642261193
1000.395401872232
999.8174642853776
1001.11909553909
1001.072432089401
1001.072432117691
1008.573431606612
1008.573431639487
1003.785408951609
999.8174642642335
996.326112497468
998.6972761084111
998.2750239585677
998.2750239972025
1001.732434876303
998.7799628912942
1005.131582297475
996.2235772311773
998.6972761074479
1003.758087656776
1001.149687660357
998.6540441647256
1003.062575291241
1001.68535305692
1001.685353052317
998.6972761214686
1000.369976200922
988.7577661812255
1000.305529307208
1001.732434856094
991.4903196489365
991.490319678772
1000.440125945282
1000.440125930044
1001.112393692443
992.8446410648138
1001.408601265408
996.7871207691601
994.4332870942101
1006.113229746898
1000.247295973116
997.7996875856267
1006.772915147821
1000.360688398957
1004.618482408659
992.8446411075975
999.4196047037212
1002.65233658035
1000.305529276672
996.1281089094028
1001.879609647745
1007.552983731859
1000.480122903515
995.0396065191119
1002.592822951764
1003.758087602915
1006.702803185687
1003.785408887899
999.4196047370093
1002.65233656142
982.38974118058
1002.592822956111
988.3788066333659
1001.944618942134
1003.702618152333
1005.279268659335
1005.261698862178
999.722084794373
999.3224448599838
999.7220848124937
999.322444928343
1003.366904497042
1005.754746874143
999.7220848136657
994.419908007798
1008.341193448101
999.3224449056473
1000.516915037997
997.8979899282323
998.2093133483296
1011.146998423662
997.4351321791572
1005.261698886348
1005.052810728998
998.5471146970956
1000.516914979598
1000.516914987796
1000.316496599807
1000.316496595246
997.6560490560801
997.6560490383592
997.8613539901838
995.8195851414918
992.9054254039436
999.6366581859589
999.29949811072
999.2994980924271
1000.586414546217
1000.586414555028
1000.586414551341
999.2994981043901
999.4363825645685
999.4363825870848
1002.240123432846
996.9561404539894
994.3248021542896
1009.221677607024
1002.5449526971
1005.131582292491
998.7799628400289
1017.374342732344
1005.684820529928
999.4363825829253
999.5373920540978
1003.961069158277
999.5373920114773
999.5373920335699
1005.507521511079
1005.918825673861
999.3727299148102
998.6540441608857
1001.149687640293
999.4363825648463
1003.961069129119
997.7167599680814
1001.745244759839
990.5534330412214
999.3659807996487
992.2136791371109
996.2877216593549
997.347425050722
1001.745244743817
996.5846371702706
1004.214473589853
1005.281209913136
999.807978742433
1001.18823099856
1001.944618987309
997.245383965336
1000.38157597504
996.2174846659231
1004.392763807406
1004.392763799895
1000.381576004579
1000.381575971295
1000.777576789589
996.7808743950333
1001.240642999823
1001.741050532645
997.2453839677374
1000
997.7996875848397
999.4189764816545
997.9369571939762
1004.214473603238
995.9148427515418
1009.221677537665
1000
1000.713399275734
1000.712236644458
1002.89909394067
1002.779352678539
996.6900975553756
999.6414095881671
1000.760315051424
1004.936995720622
999.5354911142147
995.0975346177639
1008.133423618174
1007.26665773575
999.5354910990167
1003.539323131931
994.8725567995941
999.8994313118383
999.8994313434986
999.8994313294768
999.8994313191489
996.326112475707
1001.218678574129
1001.218678555384
1001.218678563303
999.2358453426323
1001.685353076445
1000.939521485513
1000.939521443168
1000.939521466825
1007.225684928593
995.5719910635238
1004.087579635287
1002.454861655937
998.1599813746315
993.1058897007715
1000.641403618504
1000
1000
1000.641403623088
1000.641403611046
999.5070455292214
999.5070455559439
999.5001199997603
999.5001200883254
996.1561030076045
999.5001200675741
1001.883007343159
999.3600947336682
999.7032366042896
999.5896845166105
999.589684482977
993.3628733023455
994.409294799023
995.0199023515544
1001.785607677071
997.9369571727771
1001.265553908553
1000.071243637676
1000.071243644303
999.5896844704677
1000.938065868561
1000.337296146691
1000.337296168073
1000.392106921875
1000.392106916845
1000.392106904235
1000.036714865727
1000.036714888624
1000.005379372295
1001.883007313801
1000.036714857356
995.843070482591
997.897989994672
995.9630312413585
995.5719910314468
1001.408601206598
996.6648591980983
1004.618482417132
1006.113229738955
996.7871207623625
990.5534330201695
998.2093133859462
995.5719910286958
999.6683854569022
999.6683854598109
997.1092286446662
1001.87364891024
1001.64598224052
1001.873648903545
1001.873648910673
1000.585744932645
1000.585744986069
993.6684329029039
1000.21651936646
993.6684329961982
1001.123288411279
1001.123288446391
1000.216519268853
996.6415866266211
997.814490671306
994.7753479438509
994.7753479932068
1003.785408936374
1000.18396807673
1000.183968122049
1001.764510197951
1001.764510166037
1001.792141245759
999.2008523015388
999.2008523209078
1001.792141248874
1000.656451542137
1000.656451518842
998.1400657935502
998.1400658430307
1001.879485634678
1000.986800060814
1000.986800124876
1001.879485644746
1000.301509905382
1002.195679606983
1000.301509828238
1002.195679638904
1002.195679665105
999.0687137498782
999.068713731425
998.084792819284
998.084792780304
995.7215284913104
997.3702520454618
1003.582114637887
997.3702520464803
1002.556961758782
1000.020721722207
1006.772915101066
997.7167599778722
1000
997.3702520310951
1000
1002.142228068705
999.95498902543
1002.009650194095
1001.093897344464
1005.754746951737
994.419907952347
1008.341193558583
1002.142228104861
1001.792388349742
1003.440121664631
1001.57606594312
1000
1000.400682058074
1002.142228100805
1002.592822843997
1000.183967960853
988.7577662443615
1002.049155916598
1005.27926864635
1003.366904511945
998.1599813363357
1000.694029169597
999.4189765040869
1001.566119232607
998.6161884485576
999.2863609993979
999.4189764626586
1001.370736304881
994.5309150199629
1001.31458842285
999.8079786850707
1003.515128822773
1002.382411024213
1001.125320020435
1000.694029103258
1001.571154209341
1000.378341008965
1000.04723993099
1000.528622390033
1000.974029282095
1000.826870212649
1000.661358194851
1001.904713187867
1000.049407641654
1000.611947724975
1000.694029112211
1000.932933826761
998.5648161940062
1001.188230923248
995.8496912868096
1000.959038970093
1000.844955329072
1002.049155936548
999.751292788202
1000.644748180062
1002.049156015951
999.7512927191513
1002.766785143343
1002.766785252558
1002.766785233251
999.70034722679
1002.418226127452
1002.418226085474
994.1342953708182
1002.949906430852
994.6992817991426
1002.418226116756
992.2747203113477
1002.949906401731
991.1478151940508
1004.501542981994
1002.238792132719
1002.238792148589
997.4351321841086
999.0786318678139
999.0786319714326
995.019902384938
1002.382058464157
1001.29350133013
999.0786319040435
1000.358084341217
1017.91397681197
1001.29350132665
1001.293501314
998.3218701130361
1000
993.1058897252151
998.3218701515983
1006.702803243775
1001.314588373194
988.3788066072601
996.15610299302
996.1561028996347
1005.279268589959
1002.544952698067
1001.449396559154
1002.544952659561
1005.131582339325
996.7523287251922
996.7523287030882
997.8613540117192
1001.566119240997
1001.566119298461
1002.38205847803
1002.53313115492
1000.189996182556
1000
1000.192919101152
1005.91882571679
1001.728969594748
995.8195851734862
1000.588610801265
1000.748089456539
1000.407730216744
998.9484950741486
998.9419336396181
1003.65242707912
1003.098226538288
1002.147885319342
1000.616592320076
1000.325992001519
1000.591621755035
1003.062575213191
1000.644748208464
1003.632497561246
1019.991117435168
1002.860571749127
1002.173601758464
1001.449396633937
990.6090475046645
998.6161885371247
998.6161885825666
997.4018775376607
997.4018775041818
1001.785607675109
1001.785607663548
1004.522973396386
997.7379015579357
997.7379015475336
1002.240123399274
997.9369572069157
999.3727299032229
999.372729874715
996.6648593577471
996.6648591904321
996.9561403624117
998.9419335965871
999.825243601675
1002.227861407635
1002.227861490545
1002.227861489188
1001.186290457735
1001.186290400953
1001.186290417128
1001.76876250264
1001.768762455209
1001.165361330466
1001.055449972093
1001.055449964181
999.686009071567
999.68600911506
996.2235772293235
996.2235771828095
1001.749454154971
1000.369976203719
1000.369976243399
1000.440125955938
992.8446411007186
1003.702618119486
1005.261698908504
997.4207211406449
1003.961069147398
999.5512713133203
1001.240642986595
1001.240642952996
1002.779352564048
1002.779352566045
995.0975347090188
1002.018072095516
997.1092286815034
997.1092286666628
999.360094647544
1001.6459821707
994.4092948485571
993.3628732710873
1001.645982193376
1000.585744987733
995.8430704429276
1000.005379393655
993.6684329834336
997.8144906924142
1001.123288459452
997.8144906747001
1001.764510175949
1011.146998409827
999.2008523093624
998.1400658112065
1002.454861651097
1000
1010.207221596604
1000
1000.020721725219
1000.358084349379
1000.301509887108
1003.047895715658
1017.374342721477
1003.047895703462
999.2096874234844
999.582623359415
1002.00965022467
1000.712236572705
1000.713399250849
1001.093897417975
1001.093897435232
1001.576065893939
1000
1000
1000
1000.77757695842
1001.370736268845
1001.370736251816
1000.661358241656
1004.936995887999
1000.760314874434
1000.661358258669
1002.70804909344
996.9353752832673
1005.684820453349
999.9292202965242
994.3705518426583
1010.515275029016
1015.488329572228
1018.548927391728
1019.991117445598
1017.913976826693
997.5140296739991
999.2863610638433
999.2863610753113
1000.317112066255
1000.317112067627
1000
1000
1000
1000
1000
1000.770752625838
1000.277580489288
1001.100502463894
1001.676449462213
1001.655457580337
1000.400682048896
1000
997.2453839782886
999.3897616038822
1000.462929503087
1000.462929542988
1000.974029286727
1000.528622423413
1000.047239936139
1000.378340992796
1002.382411011135
1000.322616875158
996.6783141394542
1000.748089460329
1000.844955316862
1000.959039000009
1000.611947736242
1001.904713199706
1001.210657057285
997.6059038524223
1000.325992042136
1000.616592319104
1002.147885332207
1003.098226543491
1003.652427073875
1000.322616880376
1000.698764854503
1000.130987499036
997.3474249859022
996.2877216417994
1000.698764860165
997.8979899811654
998.5648161156352
999.7924163565388
1000.049407562278
999.9292202709923
1001.265553957688
1000.932933826291
982.3897411590809
1000
1000.058867963328
1000.508425295042
1000.645865144153
1000.132115964855
1000
1000.93806596541
1001.792388371648
1003.440121559563
999.968467050722
999.2517175231482
999.2517174859912
1000
1000
1000.132115966673
992.9054251548765
1000.64586514547
1001.10050245985
1001.6764494668
1018.548927360583
1015.488329566825
1010.51527505713
1024.094333376835
1001.655457575593
995.9630312393851
999.365980897983
999.6366581768626
995.9630312726143
1002.708049117981
1002.533131147029
1000.189996199089
1002.708049130402
1000.130987504653
1000.130987534136
998.6540441811588
1006.772915079682
1000.400682035375
1000.021858314067
998.2580072751763
998.5471148542764
1000.631335250538
1000.508425293356
1000.05886797681
1000
1000
1000
1000
1000
1000.464405549502
1002.616962379146
1002.018072057092
1001.112329022854
1001.112329014506
1001.188231011708
1001.571154173299
1001.125319951645
1001.792388373682
1001.576065888488
1001.100502447366
1001.676449468604
1001.655457583727
1000
1000
1000
1001.571154177739
1001.265553953896
1000.938065961635
1001.125319943858
1000.049407553501
998.5648160978346
1000.93293378255
999.389761550188
997.6059038584036
996.6783141478339
999.2358453351515
999.0056247563039
1000.021858341875
998.2580073134188
999.4196046931892
996.3261124582297
1000.588610806816
1004.021120917801
998.2580073478406
1000.021858287449
994.3705518485476
1001.314588307268
1000.541421985599
1000.360688385335
1012.779459586079
998.9419336793021
1004.134169897959
1001.110084663898
1000.541421927951
996.7523286544763
992.6934709556863
996.1281089410057
1001.77232326368
1001.110084510786
998.2556940347574
1000
1001.43547309841
998.0264775636124
998.9484951368794
1003.515128737382
994.5309152154948
998.0264775253611
1000.399093976656
990.3500487712574
992.213679119395
1000.22194990628
999.3600947693391
997.7379014875739
1004.936995770873
997.6059038678379
993.3628732246337
988.3782832113361
996.6783141655649
997.7996877075128
999.3897615650403
1008.341193486029
1000.760314848097
1000.247296074954
994.4092946381763
996.2319016328092
1000.005379437382
999.6414097765694
1000.48012309453
994.4199079712714
995.0396066584276
998.5471146929688
999.7472653288306
1005.052810607213
1001.792141304978
995.499438263686
1000
995.4994382607201
999.664386923382
998.395901882887
1005.005046741654
997.6130651784542
1000
1007.552983791408
994.5309151063969
1003.515128593933
998.9484948801072
1000.241678677073
1000.038860674024
1001.477241574859
1000.40042994783
1001.309661858297
1005.754746844873
1004.501543147088
997.5140301791918
1004.134170122319
1001.435472944572
999.7003473479953
994.699281772795
994.1342953679431
992.2747203306495
990.3500485910282
1012.779459704758
994.8725568564474
1001.944619041327
991.1478152881099
998.3959018461042
1002.281408872988
996.9353752996293
1003.440121573128
996.9353753017516
1005.28120985606
1007.225685082263
1000.92166059885
1001.030154840972
1008.133423610286
998.1599813505013
993.1058897110088
994.4332871009034
998.5306082956596
1000
998.5306083106366
1002.064896285988
1000.192919105986
994.3705518470261
994.7441855567539
997.5140300358953
1004.134169625491
1001.435473129249
1000.860203619345
999.7003473278418
994.1342953184445
994.6992817627169
992.2747203937681
998.9655073764579
1001.129800192582
998.9655074238327
996.6900975879665
1008.133423648653
1004.501543275117
1016.015502898788
1009.519466716328
990.350048439789
1001.288331152059
1000.317112101498
994.8725569036935
984.9940676250842
1000.770752609549
1000.77075272841
1000.07124365872
1004.804525045146
1000
1000.588610810797
1008.705987440757
1004.618482389397
1002.759052083404
1006.113229679386
996.7871207500378
1000.77757694926
1000.480123286311
1004.92927430162
1004.929274315237
995.5582350542716
995.5582351314365
995.8195851921519
997.8613539826549
996.7808744021218
999.7512926703828
1007.552983678613
996.2319016630539
1006.702803166763
1011.146998420683
1017.374342840628
1005.684820515328
995.0396066176186
999.9750613263664
997.435132146788
997.004858542531
995.019902320501
995.761269686394
992.2136792095714
996.2877216760722
997.3474250561929
1000.378341010184
1000.047239934216
1000.528622410412
1000.974029303909
1000.826870220236
1000.241678682767
1000.038860661024
1000.141850589
1000.611947728731
1000.959039007083
1000.844955325385
1000.748089386331
1000.407730184354
1000.400429945616
1001.309661819638
1000.616632539024
994.3248022224461
1003.098226515936
1002.147885307804