<VTKFile type="PolyData" version="1.0" byte_order="LittleEndian" header_type="UInt64">
  <PolyData>
    <Piece NumberOfPoints="2413" NumberOfVerts="2413">
      <Points>
        <DataArray type="Float64" Name="Points" NumberOfComponents="3" format="ascii">
0.0719824696173231 0.0640928535204226 0.06782840860902958
0.0591284845641678 0.1316292666117325 0.04527387556305487
0.05158960410184976 0.1078776198686864 0.03397134726955921
0.06212238013025476 0.118410395880937 0.03397134726605804
0.05990514833723811 0.07397387283071599 0.008889635600597615
0.04020688566871421 0.1025722478142187 0.04163177537540787
0.04823867556655911 0.06378002907833041 0.07920190820765713
0.04677777927511764 0.1232222207295113 0.04035540436937021
0.03742224662667327 0.1186063040937743 0.04316650259762815
0.05139369590448257 0.1325777533835955 0.04316650260715359
0.06250061388366317 0.1487496297359721 0.05097765438181065
0.02125037028467483 0.1074993861148443 0.05097765436718023
0.06792712887054757 0.1201690408873991 0.02971396461376464
0.04983095910174212 0.102072871120607 0.02971396461826208
0.07234391521054948 0.06417360722447307 0.03418015555734902
0.04675879346549468 0.06447504045931229 0.05487186623545857
0.07656261796558214 0.1402020180995233 0.001172544040153207
0.03356840693018657 0.06359372190661333 0.02439876790207229
0.04525574377193731 0.1499639224592055 0.05579217333989732
0.02003607754592998 0.1247442562281543 0.05579217334034862
0.03296907189076888 0.1288695702426833 0.04932879469616192
0.04113042975877329 0.1370309281122386 0.04932879470489489
0.05714708080986703 0.1128529191890454 0.0320185745580097
0.04741300416662152 0.08169244387397906 0.02497627237859416
0.04741300416714358 0.08830755612966905 0.02497627237164914
0.05041411590641728 0.06432387004367007 0.07445394508671774
0.07502936667381441 0.1212876423971547 0.0260399935424714
0.07401180025489107 0.1282624106448335 0.03775119042969002
0.04173758935581692 0.09598819973930338 0.03775119042315594
0.04871235760634703 0.09497063332267221 0.02603999353963988
0.01805834507430087 0.06425830764310062 0.02699085424069008
0.04718044595266508 0.07476295418527253 0.0381232317271518
0.03326391701876771 0.06550831522989649 0.008727280487419423
0.0706932904419882 0.06806086712290677 0.07866717928604182
0.04871235761259445 0.07502936667065818 0.02603999355535172
0.02389150091072494 0.06409109819345465 0.02000676899873707
0.03962232808680431 0.06674065000406594 0.06190381413828128
0.03519536167084528 0.150119041334658 0.05951283556983773
0.01988095866604549 0.1348046383260619 0.05951283556260681
0.04127015324513146 0.08849002586148681 0.03658194617789632
0.06352144500921407 0.1130183595647195 0.02869266520104785
0.05698164042836475 0.1064785549820547 0.02869266520637592
0.02914301616210298 0.06476363244841114 0.07106320073473074
0.04127015323397176 0.08150997416245942 0.03658194617736974
0.07200845923088384 0.1481696505152573 0.04834220460024825
0.02183034949906251 0.09799154077196096 0.04834220459829355
0.02696918129900273 0.07337041286608999 0.05836473331092407
0.02378212550059826 0.07204939995746507 0.05064157192938782
0.07121142967934055 0.09878857032310083 0.02206851140701145
0.02972981524560299 0.07873952538401738 0.01156826155982869
0.0297298160376581 0.09126047465308167 0.01156826136449327
0.05999354177896016 0.1241612124455816 0.01644530559822127
0.03143389949141046 0.1312650662666093 0.03913703909151713
0.03873493373560975 0.1385661004990132 0.03913703908132936
0.02750669894622603 0.07332328696749979 0.06387792582052655
0.03147375941771198 0.07153849821651304 0.05094215839616208
0.03275249475060566 0.125265277319427 0.01861356471875788
0.06661259843735944 0.1241223273457125 0.01182997259670264
0.008186842105263157 0.07144473684210526 0.1042884615384616
0.008186842105263157 0.07144473684210526 0.09552692307692309
0.008186842105263157 0.07144473684210526 0.08676538461538462
0.06953855299310695 0.07580914663360144 0.06782798735221096
0.04853916782493003 0.07074244157956915 0.07517860790343256
0.02827094546682033 0.07320662067091063 0.06840663216325897
0.03058549170811183 0.06582914974755728 0.07458552752800873
0.05737751665623479 0.1342573021768045 0.04150892261998637
0.03574269781629216 0.1126224833475562 0.04150892261930133
0.06727312438133713 0.06727312438074683 0.04295230486509611
0.08218930850800325 0.1012484579470191 0.01878395302904958
0.06875154206908804 0.08781069149427834 0.01878395301461135
0.01672216199779606 0.1254356789296028 0.03015393218676228
0.03671529781732912 0.1210264714166286 0.03938846217353183
0.04449878254452151 0.1255012174648021 0.02302241020981106
0.01907455573153682 0.09782817286043939 0.02353439962986672
0.06875154205998939 0.08218930850432506 0.01878395302806718
0.0324903507732454 0.06611007428656236 0.07738798101660084
0.06871593305575047 0.1463546790936834 0.01664412013867275
0.0303123830582328 0.1396876169376716 0.05328187778257944
0.0805079885799609 0.1476324404560239 0.04735322534506706
0.02236755955135826 0.08949201141650376 0.0473532253437901
0.02236755955060479 0.08050798858127467 0.04735322534354256
0.05123073435018005 0.07186561979140114 0.05846923486891809
0.08004186916608175 0.144946081019473 0.01416268337010187
0.05394603833432748 0.1507438475981891 0.04504347196018287
0.04551095394207261 0.1513926547211662 0.05056856331003076
0.08041797742029519 0.1226902602195987 0.006280436296608429
0.05638762538859018 0.1327278816599683 0.03058145844492282
0.06284189752602909 0.06800404210375417 0.05225395040180703
0.05378029042974634 0.121886394561984 0.03032424612885973
0.0481136054538801 0.1162197095833788 0.03032424614068996
0.07706249822513585 0.09837470515112021 0.01537142534291649
0.07213912304345364 0.1233095235401178 0.008177517980017056
0.07162529485307589 0.09293750177799419 0.01537142534054111
0.05143874517612108 0.06880392959270572 0.04357036362654902
0.06455845547701289 0.1343051345380512 0.0367130765128995
0.03569486542478552 0.1054415445128058 0.0367130765253714
0.06417360722086615 0.07234391521269629 0.03418015555897685
0.06980939402024169 0.114023295944325 0.02358799327209071
0.05597670405563224 0.1001906059673867 0.02358799327397422
0.03596280597552377 0.06744173849816774 0.07987683323869552
0.03599966308822116 0.07443039546116122 0.07745588802390686
0.06532901047498361 0.07597960550107706 0.04969000016957419
0.07584768074639842 0.1153481347412518 0.02286065329677182
0.05465186527630593 0.09415231924945687 0.02286065328766437
0.05339842747571295 0.1509739944911013 0.05140787443448273
0.05556198236721112 0.07544456468350812 0.01725993290602485
0.01902600552023192 0.1166015725277521 0.05140787442162999
0.05399318842748349 0.08217259040394154 0.02235887013720381
0.08217259040588273 0.1160068115790006 0.02235887013460424
0.0485498915996941 0.06998707674346424 0.05210708973522442
0.0539931884392258 0.08782740960026152 0.02235887012761194
0.07375795191820708 0.1350259603190591 0.03516993649750428
0.03497403966020174 0.09624204807598838 0.03516993651601807
0.06409285353022955 0.07198246960565012 0.06782840860257243
0.07217182713133201 0.1509254442698789 0.02353439963127353
0.02963633397631896 0.08867476700590179 0.03547815024564698
0.02963633396709166 0.08132523299675838 0.03547815022740256
0.06806086713219339 0.07069329043895399 0.07866717928160424
0.04897352858174227 0.133284702190879 0.0393884621867118
0.02204662130751703 0.08102944344298195 0.01938803914713463
0.06290935074303726 0.1134958438956822 0.02157125268103244
0.05650415610524138 0.1070906492522093 0.02157125268235945
0.03218800251446269 0.1306401789960777 0.04491540520377257
0.03935982099739795 0.1378119974853263 0.04491540519849683
0.06848625183692487 0.114158989915171 0.01860919057765913
0.05218012007675354 0.1267045642936528 0.0242844114168147
0.02204662134958259 0.08897055658695255 0.0193880391152073
0.0558410100851764 0.1015137481523911 0.01860919059107949
0.03187195091394605 0.07369729909718907 0.0750090938389054
0.05556198235804294 0.09455543530675103 0.01725993294878335
0.04174763102207553 0.06686113528232124 0.04652099185856578
0.05588889788919273 0.08173892083163678 0.01434676248410079
0.08173892082911537 0.1141111021118913 0.01434676249242946
0.02852299047242582 0.06500056559603092 0.06670649779033663
0.05588889789034162 0.08826107917001601 0.01434676249950166
0.06090958587703418 0.1252077493109102 0.02192964979990666
0.0447922506761405 0.1090904141312406 0.02192964977604238
0.05465186526368256 0.07584768074588175 0.02286065330339718
0.06309351521971412 0.1069064847744629 0.01457189391752566
0.05642009003730641 0.1364549688644558 0.03669908841290107
0.03354503112870975 0.1135799099646201 0.03669908840594744
0.04315907838696253 0.1268409216214938 0.03096912731594137
0.02968404624844446 0.07343606828078857 0.07206911876910402
0.02979798191314052 0.07656261801706039 0.001172543975424648
0.01835533062243423 0.1423256097261115 0.06026561897186187
0.0511900097706347 0.07075021704679818 0.06774255238965755
0.04907899737474038 0.06713869709084994 0.06196031809853181
0.04204344774438267 0.06972110883046952 0.08100026787790021
0.0276743902760161 0.1516446693822905 0.06026561896848927
0.01900747736206616 0.1072542389632651 0.04662208734943627
0.06274576104559826 0.1509925226545166 0.04662208736433226
0.04319760606149384 0.07564237139393644 0.07861492382706298
0.07544456468231159 0.114438017636472 0.01725993291753928
0.06666510196276966 0.1255659544669752 0.01752774767943179
0.04443404553556609 0.1033348980547852 0.01752774766172562
0.04109137706895051 0.07206285041459753 0.05996357085376624
0.0186073452847032 0.1244890460541409 0.05056856331261766
0.05250630349845923 0.1263106633539549 0.01533925096853105
0.07162529484790549 0.07706249822103158 0.01537142533812633
0.06813538826760486 0.1083492781637258 0.01030075162128211
0.008186842105263157 0.07144473684210526 0.007911538461538463
0.008186842105263157 0.07144473684210526 0.01667307692307693
0.008186842105263157 0.07144473684210526 0.02543461538461539
0.07123963962356712 0.1498491465525413 0.04431630854949557
[...]
      <PointData>
        <DataArray type="UInt64" Name="type" format="ascii">
1
1
1
1
1
1
1
1
1
1
1
1
1
1
1
1
1
1
1
1
1
1
1
1
1
1
1
1
1
1
1
1
1
1
1
1
1
1
1
1
1
1
1
1
1
1
1
1
1
1
1
1
1
1
1
1
1
1
0
0
0
1
1
1
1
1
1
1
1
1
1
1
1
1
1
1
1
1
1
1
1
1
1
1
1
1
1
1
1
1
1
1
1
1
1
1
1
1
1
1
1
1
1
1
1
1
1
1
1
1
1
1
1
1
1
1
1
1
1
1
1
1
1
1
1
1
1
1
1
1
1
1
1
1
1
1
1
1
1
1
1
1
1
1
1
1
1
1
1
1
1
1
1
1
1
1
1
1
1
1
0
0
0
1
1
0
1
0
0
0
1
1
1
1
1
1
1
1
1
1
1
1
0
0
1
1
1
1
1
1
1
1
1
1
1
1
1
1
1
1
1
1
1
1
1
1
1
1
1
1
1
1
1
1
1
1
1
1
1
1
1
1
1
0
0
1
1
1
1
1
1
1
1
1
1
1
1
1
1
1
1
1
1
1
1
1
1
1
1
1
1
1
1
1
1
1
1
1
1
1
1
1
1
1
1
1
1
1
1
1
1
1
1
1
1
1
1
1
1
1
1
1
1
1
1
1
1
1
0
0
1
1
1
1
0
0
1
0
0
1
1
1
0
1
1
1
1
1
1
1
1
1
1
1
1
1
1
0
1
1
1
1
1
1
1
1
0
1
1
1
1
0
1
1
0
0
1
1
1
1
1
1
1
1
1
0
0
1
1
1
1
1
1
1
1
1
1
1
1
1
1
1
1
1
1
1
1
1
1
1
1
1
1
1
1
0
0
1
1
0
1
0
0
0
1
1
0
0
0
0
0
0
0
1
0
1
1
1
1
1
1
1
0
0
0
0
0
0
0
1
1
1
1
1
1
1
1
1
1
1
1
1
1
1
1
1
1
1
1
1
1
1
1
1
1
1
1
1
1
1
1
1
1
1
1
1
1
1
1
1
1
1
1
1
1
1
1
0
0
0
0
0
0
0
0
0
0
0
0
0
0
0
0
0
0
0
0
0
0
0
0
0
1
0
0
0
0
0
0
0
1
1
0
0
0
0
0
0
0
0
0
0
0
0
0
0
0
0
0
0
0
0
0
0
0
0
0
0
0
0
0
0
0
0
0
0
0
0
0
0
0
0
0
0
0
0
0
0
0
0
0
1
0
0
0
0
0
0
0
1
1
1
1
1
1
1
1
1
1
1
1
1
1
1
1
1
1
1
1
1
1
1
1
1
1
1
1
1
1
0
0
0
0
0
0
0
1
1
1
1
1
1
1
1
1
1
1
1
1
1
1
1
1
1
1
1
1
1
1
1
1
1
1
1
1
1
1
1
1
1
1
1
1
1
1
1
1
1
1
1
1
1
1
1
1
1
1
1
1
1
1
1
1
0
1
1
1
1
1
1
1
1
1
1
1
1
1
1
1
1
1
0
1
0
1
1
1
1
1
1
1
1
1
1
0
1
1
1
1
0
1
1
1
1
1
1
1
1
1
1
0
1
1
1
1
1
0
1
1
1
1
1
1
1
1
1
1
0
1
1
1
1
1
0
1
1
1
1
1
1
1
1
1
1
1
1
1
1
1
1
1
1
1
1
1
1
1
1
1
1
1
1
1
1
1
1
1
1
1
1
1
1
1
1
1
1
1
1
1
1
1
1
1
1
1
1
1
1
1
1
1
1
1
1
1
1
1
1
1
1
1
1
1
1
1
1
1
1
1
1
1
1
1
1
1
1
1
1
1
1
1
1
1
1
1
1
1
1
1
1
1
1
1
1
1
1
1
1
1
1
1
1
1
1
1
1
1
1
1
1
1
1
1
1
1
1
1
1
1
1
1
1
1
1
1
1
1
1
1
1
1
1
1
1
1
1
1
1
1
1
1
1
1
1
1
1
1
1
1
1
1
1
1
1
1
1
1
1
1
1
1
1
1
1
1
1
1
1
1
1
1
1
1
1
1
1
1
1
1
1
1
0
0
0
1
0
0
0
1
1
1
1
1
1
1
1
1
1
1
1
1
1
0
0
0
0
0
0
0
0
0
0
0
0
0
0
0
0
0
0
0
0
0
1
1
1
1
1
1
1
1
1
1
1
1
1
1
1
1
1
1
1
1
1
1
1
1
1
1
1
1
1
1
1
1
1
1
1
1
1
1
1
1
1
1
1
0
0
0
0
0
0
0
0
0
1
1
1
1
1
1
1
1
1
1
1
1
1
1
1
1
1
1
1
1
1
1
1
1
1
1
1
1
1
1
1
1
1
1
1
1
1
1
1
1
1
1
1
1
1
1
1
1
1
1
1
1
1
1
1
1
1
1
1
1
1
1
1
1
1
1
1
1
1
1
1
1
1
1
1
1
1
0
1
1
1
1
1
1
1
1
1
1
1
1
1
1
1
1
1
1
1
1
1
0
0
0
0
0
0
1
0
1
0
1
1
0
1
1
1
1
1
1
1
1
1
1
1
1
1
1
1
1
1
1
1
1
1
1
1
1
1
1
1
1
1
1
1
1
1
1
1
1
1
1
1
1
1
1
1
1
1
1
1
1
1
1
1
1
1
1
1
1
1
1
1
1
1
1
1
1
1
1
1
1
1
1
1
1
1
1
1
1
1
1
1
1
1
1
1
1
1
1
1
1
1
1
1
1
1
1
1
1
1
1
1
1
1
1
1
1
1
1
1
1
1
1
1
1
1
1
1
1
1
1
1
1
1
1
1
1
1
1
1
1
1
1
1
1
1
1
1
1
0
0
1
1
1
1
1
1
1
1
0
1
0
1
1
1
1
1
1
1
1
0
0
1
1
1
0
0
1
1
0
0
1
1
1
0
0
1
1
1
0
0
1
1
1
0
0
1
0
0
1
1
1
1
1
1
1
1
1
1
1
1
1
1
1
1
1
1
0
0
0
0
1
0
0
0
0
1
0
0
1
1
0
1
1
1
1
1
1
1
1
1
1
1
1
1
1
0
0
0
0
0
0
0
0
0
0
0
0
0
1
1
0
0
0
0
1
0
0
0
0
1
1
1
1
1
1
1
1
1
1
1
1
1
1
1
1
1
1
1
1
1
1
1
1
1
1
1
1
1
0
0
1
1
1
0
0
1
1
0
1
1
0
1
1
0
0
1
0
1
1
1
0
1
1
1
0
0
0
0
0
0
1
0
1
1
1
1
1
1
1
0
1
0
1
1
1
0
1
1
1
1
1
0
1
1
1
1
1
1
1
1
1
1
1
1
1
1
1
1
1
1
1
1
1
1
1
1
1
1
1
1
1
1
1
1
1
0
1
1
1
1
0
1
1
1
1
1
1
1
1
1
1
1
1
1
1
1
1
1
1
1
1
1
1
1
1
1
1
1
1
1
1
1
1
1
1
1
1
1
1
1
1
1
1
1
1
1
1
1
1
1
1
1
1
1
1
1
1
1
1
1
1
1
1
1
1
1
1
0
0
1
1
1
1
1
1
1
1
1
1
0
0
0
0
0
0
0
0
1
1
1
1
1
1
1
1
1
1
1
1
1
1
1
1
1
1
1
1
1
1
1
1
1
1
1
1
1
1
1
1
1
1
1
1
1
1
1
1
1
1
1
1
1
1
1
1
1
1
1
1
1
1
1
1
1
1
1
1
1
1
1
1
1
1
1
1
1
1
1
1
1
1
1
1
1
1
1
1
1
1
1
1
1
1
1
1
1
1
1
1
1
1
1
1
1
1
1
1
1
1
1
1
1
1
1
1
1
1
1
1
1
1
1
1
1
1
1
1
1
1
1
1
1
1
1
1
1
1
1
1
1
1
1
1
1
1
1
1
1
1
1
1
1
1
1
1
1
1
1
1
1
1
1
1
1
1
1
1
1
1
1
1
1
1
1
1
1
1
1
1
1
1
1
1
1
1
1
1
1
1
1
1
1
1
1
1
1
1
1
1
1
1
1
1
1
1
1
1
1
1
1
1
1
1
0
0
0
1
1
1
1
1
1
1
1
1
1
0
0
0
1
1
1
1
1
1
1
1
1
1
1
1
1
1
1
1
1
1
1
1
1
1
1
1
1
1
1
1
1
1
1
1
1
1
1
1
1
1
1
1
1
1
1
1
1
1
1
1
1
1
1
1
1
1
1
1
1
1
1
1
1
1
1
1
1
1
1
1
1
1
1
1
1
1
1
1
1
1
1
1
1
1
1
1
1
1
1
1
0
0
0
0
0
1
0
1
0
0
0
1
0
0
0
0
0
0
0
0
0
0
0
0
1
1
0
0
0
0
0
0
1
1
0
0
0
1
1
1
1
1
1
1
1
1
1
1
1
1
1
1
1
1
1
1
1
1
1
1
1
1
1
1
1
1
1
1
1
1
1
1
1
1
1
1
1
1
1
1
1
1
1
1
1
1
1
1
1
1
1
1
1
1
1
1
1
1
1
1
1
1
1
1
1
1
1
1
1
1
1
1
1
1
1
1
1
1
1
1
1
1
1
1
1
1
1
1
1
1
1
1
1
1
1
1
1
1
1
1
1
1
1
1
1
1
1
1
1
1
1
1
1
1
1
1
1
1
1
1
1
1
1
1
1
1
1
1
1
1
1
1
1
1
1
1
1
1
1
1
1
1
1
1
1
1
1
1
1
1
1
1
1
1
1
1
1
1
1
1
1
1
1
1
1
1
1
1
1
1
1
1
1
1
1
1
1
1
1
1
1
1
1
1
1
1
1
1
1
1
1
1
1
1
1
1
1
1
1
1
1
1
1
1
1
1
1
1
1
1
1
1
1
1
1
1
1
1
1
1
1
1
1
1
1
1
1
1
1
1
1
1
1
1
1
1
1
1
1
1
1
1
1
1
1
1
1
1
1
1
1
1
1
1
1
1
1
1
1
1
0
0
0
1
0
0
1
0
0
0
0
0
0
0
0
0
0
0
0
0
0
0
0
0
0
0
0
1
0
0
0
0
0
1
1
0
0
0
0
1
0
0
0
0
0
0
0
0
1
0
0
0
0
0
0
0
0
0
0
0
0
0
0
0
0
0
0
0
0
0
0
0
0
0
0
0
0
0
0
0
0
0
0
0
0
0
0
0
0
0
0
0
0
0
0
0
0
0
0
0
0
0
0
0
0
0
0
0
1
1
0
1
1
0
0
0
1
1
1
1
1
1
1
1
1
1
1
1
1
1
1
1
1
1
1
1
1
1
1
1
1
1
1
1
1
1
1
1
1
1
1
1
1
1
1
1
1
1
1
1
1
1
1
1
1
1
1
1
1
1
1
1
1
1
1
1
1
1
1
1
1
1
1
1
1
1
1
1
1
1
1
1
1
1
1
1
1
1
1
1
0
1
1
1
1
1
1
1
1
1
1
1
1
1
1
1
1
1
1
1
0
0
0
0
0
0
0
1
0
0
0
        </DataArray>
        <DataArray type="Float64" Name="density" format="ascii">
993.9130241062169
1001.914492378338
1001.197388850305
1001.197388859645
998.0854197876026
1001.25314440483
1000.579897500568
1001.353956868679
999.5866232936268
999.5866233216336
995.7332375673506
995.7332375955674
1000.833791771067
1000.833791767618
1005.426023352021
999.1610549322612
995.6947951403314
1001.448569216216
997.8393128990051
997.8393128990565
1001.983665407453
1001.983665347631
998.6687558397074
993.8765611834913
993.8765611598508
1001.399071763756
998.5691519789632
1004.343167841396
1004.343167953433
998.5691520104905
998.990917316228
998.0174588858214
1007.303317371696
999.650206600268
998.5691519616884
998.4408302243634
1000.543373655061
999.1601612746459
999.1601613055851
1005.565861432952
1001.98428380435
1001.984283796441
995.9317086943782
1005.565861337636
999.6849488235515
999.6849489661649
998.0176501956344
1002.444687797102
998.8096347069779
983.7983335996752
983.7983359193414
1001.581313730283
997.9046793964337
997.9046792381458
998.9258027920932
999.8489021761701
1007.642896058639
1006.743767893801
1000
1000
1000
1001.795392975646
1000.69914182396
1003.647344329503
1000.326951397479
998.1893116083558
998.1893114829506
1003.450874509436
1005.934435670846
1005.934435650766
998.1178032050994
1001.49089108145
986.9822912520207
992.5934037377247
1005.934435620547
999.0913944820323
997.1284344491964
1001.211090917413
1002.584867067185
1002.584867108664
1002.584867063383
998.7991334671423
999.7439116822628
1000.751424069991
998.470430111498
993.1824273022213
1003.539775168925
1002.507090275814
1007.761836552193
1007.761836383131
1000.173486189963
999.2111716589814
1000.173486229833
1000.823079024073
1000.487953832577
1000.487953624443
1005.426023379933
1000.707860023418
1000.707860136808
1001.59394244801
1000.533303716378
1000.43266436812
1002.222509753751
1002.222509832177
995.5306301666217
996.5523245609864
995.5306301016158
1005.115730988204
1005.115731043183
998.9378663969256
1005.115731005835
991.5725000033067
991.57249997331
993.9130240719546
992.5934039632148
991.7368052492427
991.7368052491912
999.6502065931345
1001.490891089928
998.3836036592996
997.4498313125948
997.4498313154023
1001.557276695932
1001.557276574381
997.5844280469937
991.7478266277581
998.3836035082877
997.5844280942179
998.3817501732564
996.5523245874817
1001.24303460734
997.5626486594934
997.562648683856
1000.015063066797
997.5626486885169
1000.491584725158
1000.491584690764
1002.222509699589
995.161682505464
997.8311942443354
997.8311941709234
994.2670693363179
1002.662962948012
995.6947952349155
999.806243308769
1001.638145959889
1000.30766975389
1000.015651157861
999.8062432929095
994.7545130300039
994.7545129555962
1000.381615699887
996.5523245572997
998.136381250573
998.136381298076
996.4570380777194
998.4704301303711
998.9124641032101
1000.173486171585
999.2333359185697
1017.568408956142
1000
1000
999.2154176111766
999.2154176682477
1000
1002.086294213398
1000
1000
1000
998.6235544820851
1002.08629430592
1005.336033255556
1002.953432028826
1004.829770640551
993.5034108784502
1001.253144339947
1004.829770640394
1004.829770647445
1001.36818918915
998.7353417677466
1000.490194603054
1000
1000
1001.584041869869
998.7353417395072
998.0854199033389
998.0854198076596
999.4074686055749
1018.312826507519
1006.743767788316
1005.099318694541
1000.135951786456
995.2252880451105
995.2252879790226
995.2252880013777
999.5965615945532
998.220216045409
1002.654255160002
999.2111716925145
999.5965615938867
995.2951878418489
998.5960093729126
997.1284344957917
995.2951878019611
995.2951877763127
991.5053821430656
1003.765756768512
1003.765756855919
1006.480937984364
1006.480937926243
1006.480937866898
998.7353417984682
1002.086294156315
999.2154176213941
999.5965615916566
999.2333359654979
1000.589619143257
1000.589619220622
998.1363811964378
1003.018896189507
1002.161318667392
1000.626503586888
1000
1000
998.400993085775
999.5889799695574
996.4570380672822
996.5608021573422
994.0415956641142
1000.82307898831
1001.581313764768
1000.173636217592
1000.173636110121
993.1824273561701
993.1824271240653
999.2111715620174
1001.630341015855
998.2202160133845
1002.794381694588
998.1219460095299
1007.303317775732
1001.095787141551
1002.054055129976
997.5844280706899
991.5724999572852
1000.707860042527
998.9341344952837
999.9838838075601
1002.654255215083
1002.654255238902
1000.487953745861
996.9895107918892
991.5053818474303
992.593404008335
1001.72227853686
1000.490194635969
1008.637313539855
998.9341345254078
998.80963469329
1008.637313507374
998.9124639540993
999.6849488409135
1003.539775068193
1003.681005201102
1004.343167741793
1000.83379171183
996.3128454333945
996.9895109011302
996.7563765199264
1001.6303410016
1000.583147800826
998.2202159697516
1004.321176960356
1005.099318633455
1000.540096849804
998.1219460232612
998.1219460188613
999.5889799871126
1005.099318762814
1004.866291948924
998.6942071829401
999.1610549287038
1003.647344305779
998.9378663940863
991.7864582865197
991.7864581844307
996.5444449249215
1000
1000
1002.054055053092
998.7991335363254
996.3128454063445
1004.416642504285
1000
1000
991.7478265034997
1000
1000
1001.448568905168
1018.312826642954
998.4408302127496
1000
1000.205218424378
991.73680527918
1000.540096971461
1002.425681781663
1002.53202500144
1000.751424096984
998.9909173554425
998.9909173111553
1012.1134264276
1002.794381685492
989.4644365618502
1001.914492341149
1003.384353407036
1000.015651112585
1000
1000.135951751953
1001.253144359236
993.8765611120969
999.2333359918227
999.9838836739611
1002.444687810616
999.9099313798508
999.0196862725733
1000
999.8489023389614
998.3836035438104
1001.200919762666
1000.701490005476
1015.209337288827
997.6689612855099
998.9918861226587
1000
1000
983.7983345813319
999.0849632338069
1001.086084486002
998.4009930129228
1005.519560691866
1000.135951766262
993.9130240638705
1008.637313566936
1003.384353393643
1000
1000
994.0415959761759
1007.303317438951
991.5053819921538
989.4644365496805
998.4408305379859
1001.584041543326
999.4074686316023
1002.047841037608
1002.953432004691
998.4009928150498
997.032140411886
1004.416642519655
997.3986038281804
999.5889798945036
999.4286048357201
1002.595845960596
999.4074684236524
1000.490194636298
996.5444451488829
996.8896234730488
1001.200919784814
1001.584040998653
1010.063929734628
1010.063929670123
1001.243034595512
1006.743767811775
1001.368189154833
1002.047840964956
1000
1000
1004.866291862277
995.6947947362785
1000
995.9317088867155
1000
1000
1000
1005.426023350134
1001.149928399137
1017.568408731614
1000
1000
1000
1000
1000
1000
998.017650208562
1015.209337304921
1001.149928465517
1005.277572296695
1002.953431998575
1001.593942317298
1002.047840825148
1005.426023314396
1005.010762482014
1000
1000
1000
1000
1000
1000
1015.209337075431
1016.978787122443
993.5034110868161
996.6016949343704
996.6016952461509
1000.508488643692
1000.508488580447
998.1178028928681
990.7999718508892
997.0265512529124
997.026551582097
999.8655059654991
999.8209158169512
996.6677345644124
1002.486837632814
1000.738759301088
1004.329268130268
993.8205480404529
994.3745381164165
1000.986382439766
993.8205480337616
1000.054999700958
993.6274141876285
1000.054999598743
1004.329268020233
1004.327439742638
996.1897387961512
1004.327439637311
1000.738759106971
1002.41332581338
1000.397673899232
1000.230810755657
1000.397673621182
1002.413326110376
998.9378664672611
1001.448569011241
1000.326951586727
1005.277572384198
1001.672206256053
999.3652618724037
1000.701489968558
997.1793050831823
1001.795392909003
998.9918860054272
999.8489021559785
993.9130240576834
1003.450874440074
997.6689613126763
1000.699141787476
1000
1000
1000
1000
1000.346408821277
1000.662708631588
1000
1000
1000
1000.072469954563
1001.310732622857
1001.305864866833
1000
1000
1000
1000
1000.233578579801
1000.729436383652
1000
1000
1000
1002.231811783095
1001.987402302596
1000
1000.052375798915
991.7268811644351
1000
1000
1004.70324235886
1004.341603949551
1001.72316715454
1000
1000
1001.456099731357
1000.891243744227
1000
1000.990014752465
1002.145991825578
1001.627804745872
1000.228091135216
1000.699011935332
1001.650118708605
1016.807528197753
1013.644045648153
1006.598813718593
1021.134973552657
1002.89050131109
1002.212408258859
1001.292574059797
1000.990014788708
1002.145991749055
1001.62780481299
1000.228091124414
1000.699011747133
1001.650118857746
1001.75182271696
1000
1004.703242418083
1004.341603985852
1001.72316709588
1000
1000
1000.157696032434
1000
1000
1002.231811824218
1001.987402412998
1000
1000.052375801355
1000.035865506573
1000
1000
1000
1000
1000.233578607885
1000.729436412033
1000.652298404809
1000
1000
1000
1000.072469947734
1001.310732673521
1001.305864903458
1000.660980387696
1002.205175310177
1000
1000
1000
1000
1000.346408810613
1000.662708637716
1000.15005762946
996.457038022715
999.7439113903131
999.1610549688124
1005.274670179759
1000.57989740526
1000.543373682039
999.6502065787878
998.5960094250854
999.7439119999308
1002.161318658163
996.3355416951262
1000.015063049856
999.3038669894763
997.9998273489074
1004.184082618006
1002.992289796917
998.4174824653262
1000.432664343477
1004.184082655696
996.3355416891671
999.3687558679615
1002.507090234343
1002.662962974564
1018.31282667809
998.6235548425445
1002.205175444862
998.623554412546
999.8276040179456
999.8276039823045
999.8209155995949
1002.212408315019
1002.890501481199
1021.134973769667
1006.598813741078
1013.644045504844
1016.807528132711
1017.568408899973
996.1867298758204
1003.721670928915
1001.28325908517
998.3795252848394
994.6816785064989
994.681678585071
998.3795252724721
1001.283259123095
1003.721670385012
1002.092403840875
1002.425681645398
997.1284344577032
991.759838281298
1012.113426388934
1003.982949397789
1005.565861379481
994.147753324179
996.7662499350553
1000.533303686446
1000.619902660738
1001.45609987139
1002.532024856635
996.7563764857092
1001.151032966837
996.7662498046842
993.5034109500747
1006.882733334445
1000.205218240589
1004.321177379399
1001.151033545372
996.5117682204003
996.5117680410416
1007.642896167932
983.9931914555191
991.7598383163665
983.9931913213235
1000.530353660571
1003.982949546058
1002.092404119599
1010.063929709605
1000.619902777404
1001.571342929332
1002.694019298675
996.766249785916
999.303866895748
1001.086084590048
997.3986038425395
1000.559832732753
999.3687559263418
998.0174587837873
998.6942071566217
1001.32812596283
998.934134639829
1000.559832802363
998.0176502710501
1001.699879060884
1001.699879055045
1000
999.0849632854856
1000.559832753047
1000.381615649415
1003.824876739926
992.1994519794196
999.8540240439296
999.3652618467194
1001.795392998843
992.1994519814101
1005.373014611264
998.3817501502849
997.4061830360151
1001.571342863533
998.0174587590741
1000.891243668059
998.9258025571979
1000.626503488948
1000
999.0913944735204
1000
1002.595845943084
1003.824876702199
998.4174824101488
1002.992289774088
1002.694019299619
1003.824876782862
1001.638146041026
999.8540240816353
1004.866291845562
999.9838837345702
1000
1000.432664355164
999.6502065854183
997.0321404295245
1002.444687824116
1000
997.3986038535703
1001.971604060293
999.428604810494
998.7991334374175
1000.626503529577
996.5608021724127
999.0196862225768
1005.519560714318
1005.277572340103
1000.823079072052
1000
996.5608020664235
1005.010762543755
1001.243034599848
1002.507090331191
1001.672206285248
1000
1002.694019292756
998.6942071366608
1002.161318671856
1001.399071737864
998.5960094230099
1001.971604044518
1000.307669850468
1000.891243797124
1000.827317282345
999.9099313367492
1000
998.4174823948952
1002.992289771203
1005.010762505728
1001.971604074324
1000.827317288944
1000
997.1793051492281
999.6502066035235
1000.432664298606
998.4174824399843
1002.992289782923
1000.432664378358
998.4174824285816
1002.992289822231
993.913024104743
997.3986038119812
1002.992289772948
998.4174824360178
997.3986038235977
1002.69401926409
1001.368189196741
999.238473749567
1000.17348622027
1005.934435619196
998.3839157870951
998.8096347036746
998.3839158236756
998.3839158205442
998.3839158085073
1000.122549161154
1000.12254916389
1003.450874530054
1005.426023400755
1005.426023404895
997.3986038520113
1002.992289776306
998.4174824262567
1000.432664415711
1000.432664366584
1005.934435624966
1005.934435663113
1005.934435700978
1000.173486220457
1000.173486190989
1000.173486214013
999.2384737254047
1000.122549140688
1000.122549134047
998.3839158324297
998.3839158125339
998.383915855026
998.3839158340369
999.2384737302187
999.238473715658
1005.934435649007
1000.173486180153
1002.222509757777
1002.222509783303
1005.115731093701
1005.115731074847
995.2252880149377
995.2252880527315
1002.992289785011
999.6502066054323
1005.277572354207
997.3986038700037
997.3986038588398
1005.277572342681
998.4174824035174
997.0103192134602
997.0103192254653
997.0103191730846
997.0103191972908
997.0103191999475
997.0103191800239
997.0103191695081
1005.010762530865
1005.01076248057
1005.010762525097
1005.010762485731
1005.010762445843
997.5626487052373
997.5626486921509
1000.432664411402
1001.795392905104
1001.795393038023
1001.795392967034
1001.795392928522
1001.795393010357
993.9130241315042
1000.827317315657
1000.827317297544
996.5523245451162
996.5523245750696
997.010319171631
1002.694019314199
1002.694019303776
1002.694019243256
1002.694019267351
1001.971604028015
1001.971604043112
1001.971604075851
1001.971604065186
1001.971604019241
1003.824876757956
1003.824876727607
999.909931384783
999.9099313364231
1001.914492348207
1001.197388833214
1001.197388848862
993.1824271777843
1001.353956941896
999.2111716128252
999.5866233364549
1007.64289599166
1000.833791702024
995.7332375951414
997.8393128604953
998.6687558297067
993.8765611290092
998.5691520147369
1001.984283820152
1001.984283842569
1002.654255204134
998.1178030244295
998.1893116346073
1007.761836516498
1007.76183662564
1000.707860055879
997.872461284624
997.872461325519
995.5306301818098
997.4498312788387
999.9838836649104
998.7991333849861
1001.490891105462
997.4498313103921
997.5844280467633
1000.491584738944
1000.491584693778
995.1616825037671
994.2670691751118
1002.161318647851
994.0415961084216
997.8311942918322
1005.099318660488
994.7545129866547
994.1477533540382
991.747826530986
991.7478265735664
998.1363812334414
998.9378663621026
1000.626503454022
998.4704301307592
1000.135951696458
1002.086294266318
1005.33603339978
1004.829770650514
1000.823079070382
998.5960093824573
998.9341345736119
996.7563764582766
1004.321177317691
1001.456099865208
1003.765756751967
999.4286048203302
1003.018896142582
1001.581313796883
1001.581313750655
1000.891243793736
1000.173636132002
1000.173636077814
1001.095787196112
986.9822910383771
998.9124640541191
998.912464067837
1003.539775084366
996.9895107814972
996.9895106708653
1001.630340880522
1000.583147646243
996.5444450343118
996.5444451374426
1002.054054973907
1004.416642564791
1000.205218306336
1002.532024883662
1003.384353336789
1002.425681709988
1012.113426466438
1000.540096932422
989.4644366213629
1000
1000
1000
1002.205175264886
1000