<VTKFile type="PolyData" version="1.0" byte_order="LittleEndian" header_type="UInt64">
  <PolyData>
    <Piece NumberOfPoints="2936" NumberOfVerts="2936">
      <Points>
        <DataArray type="Float64" Name="Points" NumberOfComponents="3" format="ascii">
0.1234688003831435 0.06153787017388796 0.1189086241649135
0.130142077967744 0.0446309104813258 0.111123888701068
0.1317909492641532 0.02714073536918566 0.1175147941171443
0.1279300104155348 0.06807838691710619 0.1181583509841835
0.1367630990291385 0.08088731162008267 0.1103769779008919
0.1322272979252031 0.03777270207495546 0.1099843954617166
0.1346729994135606 0.06605405491343608 0.1158612534163772
0.1438374556634102 0.08043888960274236 0.08934389950329442
0.1401462877132214 0.0807129143494319 0.1069638626868376
0.1209688598330678 0.07561049386352828 0.1122196222641052
0.1404285429034647 0.02207154902788371 0.1206880342225272
0.1479284509722744 0.02957145709532387 0.1206880342226314
0.1235238828577031 0.08189250188267785 0.09913905680283668
0.137637740416356 0.05030930040638335 0.1216613335237299
0.1338691076187675 0.07361731611219992 0.1141136526132103
0.144228802225606 0.03724179843550335 0.112768430148585
0.1381516349599215 0.05692117619539448 0.1168738645703822
0.1082249224500573 0.07764310563950684 0.09333330940368653
0.1407877753046688 0.06383731314440858 0.1101050102019335
0.1074577039019027 0.0825606783576162 0.0933574793180441
0.1415487220049565 0.02148201615582761 0.1156237751926038
0.1485179838446474 0.02845127799504188 0.1156237751922214
0.1265742110219228 0.08151895538015518 0.1165004547125518
0.1226736488743727 0.06852021377695607 0.1126513026103968
0.1304489862568732 0.08082551030785444 0.08023840056767537
0.1425380137383369 0.0635774810709212 0.1066451395424693
0.1512093941800802 0.01879060581931546 0.1217452085344574
0.1196879202638819 0.08187634252585242 0.1117607828669008
0.1441353053083091 0.08063065046048516 0.09430032949528226
0.1379557386625662 0.06455558191046867 0.1133783058129209
0.1327582015628191 0.02577119777367868 0.1127684301469609
0.1219269371904321 0.08124982275110608 0.08411719612153885
0.1409937805436217 0.07229539715739532 0.1076790614322045
0.1417310679269298 0.0390617313196775 0.1225957249562384
0.1328457501436162 0.08116776264356902 0.1136504031885902
0.1196879202624332 0.08812365747617693 0.1117607828683189
0.1309382686771555 0.02826893207198764 0.1225957249600915
0.1259006860382444 0.08125672313672694 0.09000952843109748
0.1618131578947369 0.08048157894736842 0.11305
0.1618131578947369 0.08048157894736842 0.1218115384615385
0.1098566278771905 0.07592878863861731 0.08087143736297681
0.1350395582940062 0.05900390402707566 0.1193899593801656
0.1252426406588247 0.06909403081612407 0.09970057554007603
0.1288198187716662 0.06170803127779663 0.1001584825435589
0.142806833253936 0.07223440051429733 0.1045725116715558
0.1430882317515783 0.05336418266970716 0.105532226697393
0.1340694230005142 0.02457300343285315 0.1081951453244035
0.1454269965681297 0.03593057699789833 0.1081951453261079
0.1284223481384911 0.06830918974220049 0.09751287790925683
0.1279503999478878 0.07514773729072814 0.09611385426070994
0.1105007058357016 0.06580616264613018 0.09431223980818831
0.1339282525623537 0.03607174743789711 0.102143339738111
0.143742105409367 0.06272991633806319 0.1024454995833785
0.1095014662872288 0.0719609255769877 0.09333436186144965
0.1272783877758853 0.05364400112001097 0.09474131256280524
0.1280074347912419 0.06047230943062661 0.09429475115943577
0.1325406918127341 0.04446657580884386 0.09855829273295959
0.143976756262153 0.07195206507646162 0.1004098574525773
0.1224275164748423 0.05596746818012281 0.09274549329117021
0.1439518374276442 0.05341363846720523 0.1007619296603
0.1496214839067697 0.0275520833648062 0.1101932828250375
0.1424479166361385 0.02037851609315234 0.1101932828268543
0.1271385085108102 0.06713570938736167 0.09234259159508267
0.1265731492095446 0.07460629814829199 0.09103771567191768
0.1512773659381689 0.01872263406098856 0.1151840397554356
0.1443320679936549 0.04433479008544435 0.100790509690285
0.1443812693299857 0.06267466172011293 0.09758107376297386
0.144404298790457 0.07171570927269402 0.09547105842253738
0.1265940547155853 0.09512168604074349 0.1167698901909563
0.1323248646478472 0.05144138702642164 0.08963367147528388
0.1265940547239562 0.07487831395605747 0.1167698901934938
0.1461837755700706 0.0350301311837416 0.102942456698242
0.1273782449579178 0.081720622952212 0.09522550999324521
0.1282114341786366 0.03566206432434992 0.09146816068640533
0.1343379356740154 0.04178856582017115 0.09146816068625309
0.1214332253218024 0.06073972313254446 0.08551154730459486
0.1347138082195254 0.03528619177929766 0.09497785193375108
0.1231011411418292 0.05345345798382821 0.08400861172392467
0.1225071352450001 0.06770096224593736 0.0860113639793193
0.144642528637472 0.05339238447101449 0.09608159239244837
0.1224466117028147 0.07425601815862151 0.08405688204839858
0.1322439797871795 0.05814812530089615 0.08435343640041225
0.1088722569526493 0.06887210490559996 0.08048447695862936
0.1309004822681648 0.06467945077135114 0.08334951437586371
0.1447784477272397 0.0621633991034429 0.09272306191591352
0.1527763157894737 0.008186842105263157 0.11305
0.1527763157894737 0.008186842105263157 0.1218115384615385
0.1347026315789474 0.008186842105263157 0.11305
0.1437394736842105 0.008186842105263157 0.11305
0.1347026315789474 0.008186842105263157 0.1218115384615385
0.1437394736842105 0.008186842105263157 0.1218115384615385
0.1618131578947369 0.008186842105263157 0.11305
0.1618131578947369 0.01722368421052631 0.11305
0.1618131578947369 0.02626052631578947 0.11305
0.1618131578947369 0.03529736842105263 0.11305
0.1618131578947369 0.04433421052631578 0.11305
0.1618131578947369 0.05337105263157894 0.11305
0.1618131578947369 0.06240789473684209 0.11305
0.1618131578947369 0.008186842105263157 0.1218115384615385
0.1618131578947369 0.01722368421052631 0.1218115384615385
0.1618131578947369 0.02626052631578947 0.1218115384615385
0.1618131578947369 0.03529736842105263 0.1218115384615385
0.1618131578947369 0.04433421052631578 0.1218115384615385
0.1618131578947369 0.05337105263157894 0.1218115384615385
0.1618131578947369 0.06240789473684209 0.1218115384615385
0.1618131578947369 0.07144473684210526 0.1218115384615385
0.1618131578947369 0.07144473684210526 0.11305
0.1518451524719071 0.01815484752798686 0.1007138610591868
0.1518527283590106 0.01814727164166421 0.09249451260029305
0.14247910675776 0.0190828483743146 0.09070877644930095
0.1509171516248706 0.02752089323995024 0.09070877645194331
0.1348950786261145 0.01982356655999384 0.08598654125763204
0.1501764334372765 0.03510492137279318 0.08598654125601145
0.151755414723878 0.01824458527503582 0.1083826925900501
0.121926937189135 0.08875017724791633 0.08411719612008546
0.1426766497738932 0.01965583418527787 0.09755252457317484
0.1503441658135345 0.02732335022602134 0.0975525245751991
0.1352032887377318 0.02128229232490017 0.09184960138806908
0.1487177076723831 0.0347967112602046 0.09184960138795967
0.1478335084702132 0.04489032784022783 0.0908545235946252
0.1273782449566245 0.08827937704856312 0.09522550999080809
0.1367630990339526 0.08911268838082501 0.1103769779014624
0.1353972214053744 0.04950685949565843 0.08372532910201867
0.1465134299299594 0.05317191809289105 0.09179470101666891
0.1427570059036266 0.01982927721902429 0.1041246154186032
0.150170722779815 0.0272429940980233 0.1041246154169563
0.1500273552036126 0.04494655305018486 0.08572082777783573
0.1512730827806612 0.05334819556051704 0.08239056398480459
0.1350211845405702 0.02289027179391136 0.09721825439827565
0.1471097282040886 0.03497881545941174 0.09721825439894682
0.1285045677055714 0.0609713808481556 0.1212119933852462
0.1395564233383128 0.03044357665990406 0.08447714036923634
0.1259128152666849 0.06270153632591383 0.1027567854412728
0.1363276233908551 0.03367237660879156 0.08986291778375581
0.1424339043623544 0.08951829246330173 0.1034130500456023
0.1465821308710332 0.06235402678578904 0.08820748239196273
0.128461327052773 0.03346238472763154 0.08482203239316598
0.1365376152725351 0.04153867294845234 0.08482203239385971
0.148853592240413 0.07121095222145121 0.0825206211957296
0.1493780912313661 0.06237265124245544 0.08433604899493766
0.1420608662677714 0.05485549887520146 0.1098139566563257
0.1491472646231071 0.05326231835720312 0.08757117230949474
0.1436999906859271 0.0895722019935213 0.09907997798063459
0.1246494320701845 0.07562218996048316 0.09988449516195982
0.1459069457508089 0.07126261723187825 0.08604149879615056
0.1249220782788256 0.05585742916641884 0.1068894489397668
0.1441307231532094 0.07155577138475951 0.09032910921794707
0.1304105052283118 0.07374482123545041 0.0797396680858032
0.1424339043601983 0.08048170753660226 0.1034130500402439
0.1456981700730161 0.04474788177847795 0.09556470926347331
0.1428392883426474 0.04502858046345054 0.1106151536426451
0.1436999906869942 0.08042779800640142 0.09907997797567138
0.14047308127814 0.05550174592730581 0.1136928816550142
0.1349698688157935 0.02381622442894711 0.1029424566991605
0.1518622316472981 0.01813776835482512 0.08478827218324386
0.1527763157894737 0.008186842105263157 0.08676538461538462
0.1527763157894737 0.008186842105263157 0.09552692307692309
0.1527763157894737 0.008186842105263157 0.1042884615384616
0.1347026315789474 0.008186842105263157 0.1042884615384616
0.1437394736842105 0.008186842105263157 0.1042884615384616
0.1618131578947369 0.008186842105263157 0.08676538461538462
0.1618131578947369 0.01722368421052631 0.08676538461538462
0.1618131578947369 0.02626052631578947 0.08676538461538462
0.1618131578947369 0.03529736842105263 0.08676538461538462
0.1618131578947369 0.04433421052631578 0.08676538461538462
0.1618131578947369 0.05337105263157894 0.08676538461538462
0.1618131578947369 0.06240789473684209 0.08676538461538462
0.1618131578947369 0.008186842105263157 0.09552692307692309
0.1618131578947369 0.01722368421052631 0.09552692307692309
[...]
      <PointData>
        <DataArray type="UInt64" Name="type" format="ascii">
1
1
1
1
1
1
1
1
1
1
1
1
1
1
1
1
1
1
1
1
1
1
1
1
1
1
1
1
1
1
1
1
1
1
1
1
1
1
0
0
1
1
1
1
1
1
1
1
1
1
1
1
1
1
1
1
1
1
1
1
1
1
1
1
1
1
1
1
1
1
1
1
1
1
1
1
1
1
1
1
1
1
1
1
1
0
0
0
0
0
0
0
0
0
0
0
0
0
0
0
0
0
0
0
0
0
0
1
1
1
1
1
1
1
1
1
1
1
1
1
1
1
1
1
1
1
1
1
1
1
1
1
1
1
1
1
1
1
1
1
1
1
1
1
1
1
1
1
1
1
1
1
1
1
1
0
0
0
0
0
0
0
0
0
0
0
0
0
0
0
0
0
0
0
0
0
0
0
0
0
0
0
0
0
0
0
0
0
1
1
1
1
1
1
0
1
1
1
1
1
1
1
1
0
0
1
0
0
0
0
1
1
0
1
1
1
1
1
1
1
1
1
1
1
1
1
1
1
1
1
1
1
1
1
1
1
1
1
1
1
1
1
1
1
1
1
1
1
1
1
1
1
1
1
1
1
1
1
1
1
1
1
1
1
0
0
0
0
1
1
1
1
1
1
1
1
1
1
1
1
0
0
0
0
0
0
0
0
0
0
0
0
0
0
0
0
0
0
1
0
0
0
0
0
0
0
0
0
0
0
0
0
0
0
0
0
0
1
0
0
0
0
1
1
0
0
0
0
0
0
1
1
1
1
1
1
1
0
0
0
0
0
0
0
0
0
0
0
0
0
0
0
0
0
0
0
0
0
0
0
0
1
1
1
1
1
1
1
1
1
1
1
1
1
1
1
1
1
1
1
1
1
1
1
1
1
1
1
1
1
1
1
1
1
1
1
1
1
1
1
1
1
1
1
1
1
1
1
1
1
0
0
0
0
0
0
0
0
0
0
0
0
0
0
0
0
0
0
0
0
0
0
0
0
0
1
1
1
1
1
1
1
1
1
1
1
1
1
1
1
1
1
1
1
1
1
1
1
1
1
1
1
1
1
1
1
1
1
1
1
1
1
1
1
1
1
1
1
1
1
1
1
1
1
1
1
1
1
1
1
1
1
1
1
1
1
1
1
1
1
1
1
1
1
1
1
1
1
1
1
1
1
1
1
1
1
1
1
1
1
1
1
1
1
1
1
1
1
1
1
1
1
1
1
1
1
1
1
1
1
1
1
1
1
1
1
1
1
1
1
1
1
1
1
1
1
1
1
1
1
1
1
1
1
1
1
1
1
1
1
1
1
1
1
1
1
1
1
1
1
1
1
1
1
1
1
1
1
1
1
1
1
1
1
1
1
1
1
1
1
1
1
1
1
1
1
1
1
1
1
1
1
1
1
1
1
1
1
1
1
1
1
1
1
1
1
1
1
1
1
1
1
1
1
1
1
1
1
1
1
1
1
1
1
1
1
1
1
1
1
1
1
1
1
1
1
1
1
1
1
1
1
1
1
1
1
1
1
1
1
1
1
1
1
1
1
1
1
1
1
1
1
1
1
1
1
1
1
1
1
1
1
1
1
1
1
1
1
1
1
1
1
1
1
1
1
1
1
1
1
1
1
1
1
1
1
1
1
1
1
1
1
1
1
1
1
1
1
1
1
1
1
1
1
1
1
1
1
1
1
1
1
1
1
1
1
1
1
1
1
1
1
1
1
1
1
1
1
1
1
1
1
1
1
1
1
1
1
1
1
1
1
1
0
0
1
1
1
1
1
1
1
1
1
1
0
1
1
1
0
1
1
0
1
0
0
0
0
0
0
0
0
0
0
0
0
0
0
0
0
0
0
0
0
0
0
0
0
0
0
0
0
0
0
0
0
1
1
1
1
1
1
1
1
1
1
0
0
1
1
1
1
0
0
1
1
1
1
1
1
1
1
1
0
0
0
0
0
0
1
0
0
0
0
0
0
1
1
1
1
1
1
1
1
1
1
1
1
1
1
1
1
1
1
1
1
1
1
0
0
1
1
0
0
0
0
0
0
0
0
0
0
0
0
0
0
0
0
0
0
0
0
0
0
0
0
0
0
0
0
0
1
0
0
0
0
0
0
0
1
0
0
0
1
1
1
1
1
1
1
1
1
1
1
1
1
1
1
1
1
1
1
1
1
1
1
1
1
1
1
1
1
1
1
1
1
1
1
1
1
1
1
1
1
0
0
0
0
1
0
1
1
1
1
1
1
1
1
1
1
1
1
1
1
1
1
1
1
1
1
1
1
1
1
1
1
1
1
1
1
1
1
1
1
1
1
1
1
1
1
1
1
1
1
1
1
1
0
0
0
0
0
0
0
0
0
1
1
1
1
1
1
1
1
1
1
1
1
1
0
0
0
0
0
0
0
0
0
1
1
1
1
1
1
1
1
1
1
1
1
1
1
1
1
1
1
1
1
1
1
1
1
1
1
1
1
1
1
1
0
0
0
0
0
0
0
0
0
1
1
1
1
1
1
1
1
1
1
1
1
1
1
1
1
1
1
1
1
1
1
1
1
1
1
1
1
1
1
1
1
1
1
1
1
1
1
1
1
1
1
1
1
1
1
1
1
1
1
1
1
1
1
1
1
1
1
1
1
1
1
1
1
1
1
1
1
1
1
1
1
1
1
1
1
1
1
1
1
1
1
1
1
1
1
1
1
1
1
1
1
1
1
1
1
1
1
1
1
1
1
1
1
1
1
1
1
1
1
1
1
1
1
1
1
1
1
1
1
1
1
1
1
1
1
1
1
1
1
1
1
1
1
1
1
1
1
1
1
1
1
1
1
1
1
0
0
0
0
0
0
1
1
1
1
1
1
1
1
1
1
1
1
1
1
1
1
1
1
1
1
1
1
1
1
1
1
1
1
1
1
1
1
1
1
1
1
1
1
1
1
1
1
1
1
1
1
1
1
1
1
1
1
1
1
1
1
1
1
1
1
1
1
1
1
1
1
1
1
1
0
0
0
0
0
0
0
0
1
1
0
0
0
0
0
0
0
0
0
0
1
1
1
1
1
1
1
1
1
1
1
1
1
1
1
0
0
0
0
0
0
0
0
0
0
0
0
0
0
0
0
0
0
0
0
0
0
0
0
0
0
0
0
0
0
1
1
1
0
0
0
0
0
0
1
1
1
1
1
1
1
1
1
1
1
1
1
1
1
1
1
1
1
1
1
1
1
1
1
1
1
1
1
1
1
1
1
1
1
1
1
1
1
1
1
1
1
1
1
1
1
1
1
1
1
1
1
1
1
1
1
1
1
1
1
1
1
1
1
1
1
1
1
1
1
1
1
1
1
1
1
1
1
1
1
1
1
1
1
1
1
1
1
1
1
1
1
1
1
1
1
1
0
0
0
0
1
1
1
1
1
1
1
1
1
1
1
1
1
1
1
1
1
1
1
1
1
1
1
1
1
1
1
0
1
1
1
1
0
1
1
1
1
0
1
1
0
1
1
1
1
1
1
1
1
1
1
1
1
1
1
1
1
1
1
1
1
0
0
0
0
1
1
1
1
1
1
1
0
0
0
0
1
1
0
0
0
0
1
0
0
0
0
1
1
1
0
0
0
0
1
1
1
0
0
0
0
1
1
1
1
0
0
0
0
1
1
1
1
1
1
1
1
1
1
1
1
1
1
1
1
1
1
1
1
1
1
1
1
1
1
1
1
1
1
1
1
1
1
1
1
1
1
1
1
1
1
1
1
1
1
1
1
1
1
1
1
1
1
1
1
1
1
1
1
1
1
1
1
1
1
1
1
1
1
1
1
1
1
1
1
1
1
1
1
1
1
1
1
1
1
1
1
1
1
1
1
1
1
1
1
1
1
1
1
1
1
1
1
1
1
1
1
1
1
1
1
1
1
1
1
1
1
1
1
1
1
1
1
1
1
1
1
1
1
1
1
1
1
1
1
1
1
1
1
1
1
1
1
1
1
1
1
1
1
1
1
1
1
1
1
1
1
1
1
1
1
1
1
1
1
1
1
1
1
1
1
1
1
1
1
1
1
1
1
1
1
1
1
1
1
1
1
1
1
1
1
1
1
1
1
1
1
1
1
1
1
1
1
1
1
1
1
1
1
1
1
1
1
1
1
1
1
1
1
1
1
1
1
1
1
1
1
1
1
1
1
1
1
1
1
1
1
1
1
1
1
1
1
1
1
1
1
1
1
1
1
1
1
1
1
1
1
1
1
1
1
1
1
1
1
1
1
1
1
1
1
1
1
1
1
1
1
1
1
1
1
1
1
1
0
0
0
0
0
0
1
1
1
1
0
0
0
0
0
0
1
1
1
1
1
1
1
1
1
1
1
1
1
1
1
1
1
1
1
1
1
1
1
1
1
1
1
1
1
1
1
1
1
1
1
1
1
1
1
1
1
1
1
1
1
1
1
1
1
1
1
1
1
1
1
1
1
1
1
1
1
1
1
1
1
1
1
1
1
1
1
1
1
1
1
1
1
1
1
1
1
1
1
1
1
1
1
1
1
1
1
1
1
1
1
1
1
1
1
1
1
1
1
1
1
1
1
1
1
1
1
1
1
1
1
1
1
1
1
1
1
1
1
1
1
1
1
1
1
1
1
1
1
1
1
1
1
1
1
1
1
1
1
1
1
1
1
1
1
1
1
1
1
1
1
1
1
1
1
1
1
1
1
1
1
1
1
1
1
1
1
1
1
1
1
1
1
1
1
1
1
1
1
1
1
1
1
1
1
1
1
1
1
1
1
1
1
1
1
1
1
1
1
1
1
1
1
1
1
1
1
1
1
1
1
1
1
1
1
1
1
1
1
1
1
1
1
1
1
1
1
1
1
1
1
1
1
1
1
1
1
1
1
1
1
1
1
1
1
1
1
1
1
1
1
1
1
1
1
1
1
1
1
1
1
1
1
1
1
1
1
1
1
1
1
1
1
1
1
1
1
1
1
1
1
1
1
1
1
1
1
1
1
1
1
1
1
1
1
1
1
1
1
1
1
1
1
1
1
1
1
1
1
1
1
1
1
1
1
1
1
1
1
1
1
1
1
1
1
1
1
1
0
0
0
0
1
1
1
1
1
1
1
1
1
1
1
1
1
1
1
1
1
1
1
1
1
1
1
1
1
1
1
1
1
1
0
0
1
0
0
1
1
1
1
0
0
0
0
1
1
1
1
0
0
0
0
1
0
0
0
0
0
0
0
0
1
0
0
0
0
0
0
0
0
0
0
0
0
1
1
1
1
1
1
1
1
1
1
1
1
1
1
1
1
1
1
1
1
1
1
1
1
1
1
1
1
1
1
1
1
1
1
1
1
1
1
1
1
1
1
1
1
1
1
1
1
1
1
1
1
1
1
1
1
1
1
1
1
1
1
1
1
1
1
1
1
1
1
1
1
1
1
1
1
1
1
1
1
1
1
1
1
1
1
1
1
1
1
1
1
1
1
1
1
1
1
1
1
1
1
1
1
1
1
1
1
1
1
1
0
0
0
0
0
0
0
0
0
0
0
0
1
1
1
1
1
1
1
1
1
1
1
1
1
1
1
1
1
1
1
1
1
1
1
1
1
1
1
1
1
1
1
1
1
1
1
1
1
1
1
1
1
1
1
1
1
1
1
1
1
0
0
0
0
0
0
0
0
1
1
1
1
1
1
1
1
1
1
1
1
1
1
1
1
1
1
1
1
1
1
1
1
1
1
1
1
1
1
1
1
1
1
1
1
1
1
1
1
1
1
1
1
1
1
1
1
1
1
1
1
1
1
1
1
1
1
1
1
1
1
1
1
1
1
1
1
1
1
1
1
1
1
1
1
1
1
1
1
1
1
1
1
1
1
1
0
1
1
1
1
0
1
0
1
1
1
0
1
1
0
0
1
0
1
1
1
0
1
1
1
1
1
1
1
1
1
1
1
1
1
1
1
1
1
1
1
1
1
1
1
0
1
1
1
1
0
1
1
1
1
1
1
1
1
1
1
1
1
1
1
1
1
1
1
1
1
1
1
0
0
0
0
0
1
1
0
0
0
0
0
0
1
0
1
0
0
0
0
1
0
0
0
0
0
0
0
0
1
0
0
0
0
0
0
0
0
0
0
0
0
0
0
0
0
0
0
1
1
0
1
0
0
0
0
0
0
0
1
0
0
0
1
0
1
0
0
1
0
1
1
1
1
1
0
0
0
0
1
0
1
0
0
0
0
0
0
1
0
0
1
1
0
0
1
0
0
0
0
1
0
0
0
0
0
0
0
0
0
0
1
0
1
1
0
0
0
1
0
0
0
1
1
1
0
1
1
0
1
0
1
0
0
0
0
0
0
0
1
0
1
0
0
1
1
1
1
1
1
0
0
1
0
1
1
1
1
1
1
1
0
1
1
1
1
1
0
0
1
0
0
1
1
0
0
0
0
1
0
0
0
0
0
0
0
0
1
0
0
1
0
0
0
0
0
0
0
0
0
0
0
0
0
0
0
0
0
0
0
0
0
0
1
1
1
0
0
0
1
0
1
0
1
1
1
0
0
0
0
0
0
0
0
0
0
0
1
0
0
0
0
1
0
0
0
0
0
0
0
0
0
0
1
0
0
1
0
0
0
1
1
1
1
1
1
0
0
0
0
1
1
0
0
1
0
0
0
0
1
0
1
        </DataArray>
        <DataArray type="Float64" Name="density" format="ascii">
1000.7085459974
1000.290356954057
1000.899669060544
1000.250356816398
1000.437567036119
998.9962930796383
1002.142763221511
999.7394966639786
999.0789833976694
1000.080436645993
1000.540820549171
1000.540820559553
1000.94962186886
1000.640973784864
1000.18068355283
999.5259253328862
999.6293075378062
998.8806828961913
998.030426265694
998.0450073872456
1001.365011603691
1001.36501161266
997.4411725598789
1000.821248989899
1002.04500731486
999.268206441081
1001.139971482942
999.408273250659
999.4600100294703
1001.454761888583
999.5259253046946
998.637326395101
997.9279527768247
1000.56410974749
998.6723202899469
999.4082732324154
1000.564109760415
1000.799214811473
1000
1000
1000.906409790442
999.17192012096
1000.390182182302
999.2154063467791
997.9110836221815
999.8928769485923
998.1939775872044
998.1939776225001
1000.274343587502
1000.290288688719
1000.93170539679
998.3908121283652
999.8301340653486
1000.435509003677
1001.489164642293
1000.188317766337
1000.459203552957
1001.186233971713
1001.948491266165
997.0557500984445
999.3162123082789
999.3162122905439
999.110905979391
999.1596602659606
1000.547323679524
999.483317807756
999.9323455826438
1000.769026843961
999.5299720748138
998.4186230067324
999.5299721030945
1000.116332220799
999.9144067680267
1000.242374686588
1000.242374705816
999.2993081912273
999.9097068921818
999.8266176665164
999.6126049351634
1000.789387851882
999.0547451984214
1003.435387987572
1000.06177019557
1003.802241536005
1001.352481951036
1000
1000.067163628782
1000
1000
1000
1000
1000.171200970105
1000
1000
1000
1000
1000
1000
1000.237395612108
1000.067163630467
1000
1000
1000
1000
1000
1000
1000
999.1662127346466
999.3034352981388
1000.972979725058
1000.972979712828
1001.751609635062
1001.751609601091
999.7048496165016
998.6373263563815
1000.053970935507
1000.053970941969
1001.708663589316
1001.708663581321
1000.652634142943
999.9144067605278
1000.437567017181
997.8198599351322
1001.245908038916
998.95943413599
998.9594341593279
999.8541743762261
998.828993409905
1001.705034215786
1001.70503423701
1000.170703846446
996.971803513278
1000.135600295669
1001.420656720341
998.5382930986909
1000.515486773549
1002.90596984517
1002.905969849181
998.2516194160604
998.7262778733858
1000.267230925474
999.8594054675303
1001.041971254136
1002.244752355394
999.0782302175088
1000.361427723454
1000.517686940983
1003.114476396283
998.5382930969762
1001.117043024138
1000.339453671706
1001.041971195551
999.7447228226849
1000.116332173505
1000.027847460935
1000
1000
1000
1000
1000
1000.547140208879
1000
1000
1000
1000
1000
1000
1000.62760582278
1000
1000
1000
1000
1000
1000
1001.389212380949
1000
1000
1000
1000
1000
1000
1000
1000
1000
1000
1000
1000
1000
1000.79921477995
997.6380425780545
999.4600100307186
1002.14256293317
1002.142562958961
1000.904016420654
1000
998.668380534117
998.668380646931
999.111760397045
998.8014506700184
998.8014507426692
999.7394965836884
999.0789834286674
997.4411725471391
1000
1000
998.6723203146175
1000
1000
1000
1000
1002.04500727043
1002.015380462717
1000
1000.949621882627
999.1596602203708
1000.234113197639
1000.899669071037
1000.290288703067
1002.244752377441
1000.080436626042
1001.877851778888
998.0264775058479
998.0264774516812
1000.221949920616
1000.221950028003
999.3600947745404
999.3600947970526
997.8613540099176
1004.501543011704
1004.501543502834
997.8613539809346
998.9484947846863
998.9484949733809
1000.399094010988
995.8195852178143
1005.005046741231
1002.173601776735
1005.131582328546
1002.54495266868
995.5719910099396
998.1599813145294
1002.240123360911
996.9561403242428
996.9561403678514
994.3248022346547
1000.760314892317
998.9655074110603
998.9655073629993
999.7003473461263
999.7003473957923
1000.938065987336
999.3727298597663
998.6540441607626
995.0199023673126
1001.785607654926
988.3788065801061
1007.225685117331
1003.785408941952
998.2556938882032
1001.110084443789
1001.110084619383
992.6934710075899
988.3782832594152
1000.88566070346
1010.515275048606
1024.09433336131
1004.804525034572
1000
1005.754746827825
1005.754746821948
994.8725569340589
1000.183968144952
1004.618482346746
1006.113229654902
1002.049155978671
996.7871207675593
994.419908031662
1008.341193421057
998.616188603507
997.0048585652339
1000.631335247629
1000.508425299721
1000.058868006946
1000
1000
1000
1000
1000.132115989835
1000.645865165824
1001.10050247811
1000.141850595715
1000.038860653797
1000.241678691355
1000.826870232298
1000.616632541361
1001.309661810254
1000.400429903234
1000.407730143431
999.2863610757981
1000.712236649113
1000.602339376719
1000.921660612076
1002.281408795781
1000.591621716583
1002.899093937392
1000
1000
1001.129800179234
1002.064896318188
1000
1000
1001.772323326138
1004.087579618698
1001.41399162949
1000
1001.477241643855
1002.899093927614
984.9940676142488
1000.562946557785
1000
1004.804525122585
1024.094333469053
984.9940675605093
997.2453839390587
1001.477241551203
1000
1002.454861620694
1004.087579666641
1001.77232328356
1000
997.4351321409673
997.435132265174
996.7523287657452
997.4018775179026
997.4018775287442
997.7379015962554
1001.435473149808
1000.192919108646
1002.064896285137
1001.129800186139
1000
1000.325991983115
1000.591621724591
1002.281408861102
1000.921660606379
1000.748089465903
1000.407730216373
1000.400429925703
1001.309661849319
1000.974029306949
1000.826870228417
1000.241678686436
1000.038860677869
1001.100502458166
1000.645865152468
1000.132115981596
1000
1000
1000
1000.058867998287
1000.50842530033
994.7441855903263
999.7924163115331
995.499438264628
999.6414095896046
1000.760315003717
995.4994382970773
999.7472653253079
999.6414098156409
1000.860203476164
997.5140304019828
1004.134169748775
1004.134170097264
1002.759052080595
1001.728969529322
995.761269744585
996.780874319036
1000.777576719219
995.7612698001703
996.7808743111087
997.2453839999234
1004.929274449822
1004.929274434784
997.613065153397
997.5140303132423
1016.015503029243
999.6643869008889
998.3959019483232
996.6900975994989
998.3959018975783
1001.030154938394
1000.305529245221
996.690097508391
1000.305529183854
996.5846370602862
996.5846368215545
990.3500484471641
1000.48012318258
996.2877216838598
997.3474250660931
1007.552983642348
1001.792388367881
1011.146998395813
1007.552983643147
994.4199080232878
996.2319017554968
1000.777576801629
1000.130987505774
1004.936995629104
1003.51512851983
1018.548927382188
1015.488329457545
1010.515275015527
1000
1000.713399283209
1000.7122366109
1000
1000
1002.454861614765
1000.189996197991
1000
1000.192919057867
1002.147885311428
1000.616592260934
1000.325992029045
1000.959039029788
1000.844955332911
1000.748089358693
1000.04723994275
1000.528622430665
1000.97402933217
1001.655457582951
1001.676449468095
1000
1000
1000.130987572119
996.2235771585891
1001.749454201095
1000.369976250549
1001.685353059328
1001.685353063929
994.6992817260136
1002.860571697845
994.1342952596824
1001.072432134693
1001.119095553914
1000.322616872899
993.3628731679065
1000.322616910651
993.1058897053024
998.275024022284
1000.440125930503
1001.149687654309
997.9369572049087
998.0847927931817
998.0847926859111
995.5582350545127
1000.395401848048
1004.522973420729
995.8195852011711
1006.702803144871
1006.702803135473
1009.221677511526
995.5582351574145
1000.440125917499
1000.277580432822
992.8446410755026
1009.519466792262
1008.705987381482
1002.652336533892
994.8725568845803
998.5648161001526
1005.261698910732
997.4207211118236
1003.961069191148
996.2174846365681
1000.803620930142
999.3897616022545
999.3897615650492
1002.77935251276
995.0975347429419
1002.544952634452
1002.592823031604
1002.592822997517
995.7215285040809
997.1092286613895
999.9684670673802
1001.645982155737
1000.585745007732
1000.585745004601
996.1561029773258
996.1561028690643
993.6684329999939
993.6684329984898
997.8144906754702
994.7753479937254
1001.764510188399
1005.918825730392
999.2008523056998
998.1400658188888
1010.207221605432
1000.301509909764
1003.047895716656
1003.047895709832
1003.58211462958
999.209687424024
1001.883007317175
1001.883007367218
999.9549889994175
999.000248524792
997.6059038779409
999.2517174788424
1000.698764832458
1000.698764833278
999.2517174863875
1001.879609563332
999.3727298663429
988.7577661356599
999.4189764540508
999.4189764628859
1001.370736209348
1000.661358278
1007.266657732445
996.6783141430482
1000.644748242862
995.9630312702535
999.3659809442403
1003.632497584826
995.9630312911945
990.6090475115853
1002.708049103336
996.6648593782163
996.6648592266839
1001.944618943366
1001.566119327485
1001.566119264109
1002.556961771787
996.9353752978246
1008.133423588989
1000.317112021048
998.8359315859897
997.047052322107
995.849691301193
1001.125319944333
999.4928183425711
1000.932933835759
1000.932933780537
999.4928183687667
999.4928183844079
999.4928183206355
999.0056247322282
999.4825641328218
999.482564077299
1004.021120936704
1002.616962336402
1002.616962355298
1001.265553964412
1001.240642947194
999.5512712984315
1001.093897449323
1000.04940756313
999.5826234049335
1000.464405625498
1002.018072079732
1001.576065868613
1002.018072130393
999.9292202869744
1001.265554000396
999.9292202951531
1001.210657078065
1001.093897475187
1001.944618908134
1001.11232905532
1001.1123290745
1002.009650222021
1001.240642927818
1000.462929526182
1001.57606586641
997.8144906829672
1003.702618106782
1000.021858371355
1000.462929583874
1000.021858391052
1000.541421895393
998.2580073008593
1000.369976269417
998.258007281952
994.3705518293689
1000.803620952082
1001.57115417613
999.0002485360033
1000.885660740639
998.835931562258
999.6860091824593
1001.05545003192
1001.055450000354
1001.165361375555
1001.18629037497
1001.186290394604
1002.067498352167
1002.06749837679
999.825243669053
998.32187010138
1001.293501338823
999.0786318503983
999.0786318848898
1002.418226109983
1002.949906412743
999.7512926790449
999.7512927202594
1000.694029103166
1000.694029130091
1002.142228098276
997.3702520344522
997.3702520038493
1002.195679665059
1001.879485685916
1001.879485699939
1001.792141237842
996.6415866184543
1000.216519264773
1001.873648894268
1000.036714853719
1000.392106884408
1000.337296151178
1000.337296184107
1000.071243617977
1000.071243629827
999.5896844521144
999.5896844781266
999.5001201116007
1000.641403625805
1000.939521466281
999.9964628222857
1001.218678549212
999.899431323185
999.8994312964204
1003.539323189727
995.9148427866184
1001.74105057385
1000.381575996029
999.737129660901
1005.507521557693
996.3261125316778
999.4363825700395
999.4363825754748
1001.745244763095
1001.745244785718
999.7371296100159
999.7371296392027
999.7371296776349
1000.989706041383
1000.989706047962
999.2994981249133
1000.586414573181
997.6560490073342
1000.31649655482
1000.316496568445
1000.516915011021
1000.516914989982
999.3224449127109
999.7220848179196
999.4196047278206
999.4196047008044
1001.112393643257
1000.588610846893
1001.314588387976
997.0470522845977
997.0470523293613
997.0470522959899
998.6972761231061
998.6972761307111
999.8174643076234
1000.395401868831
1001.119095478434
1005.507521422344
996.2235772448985
1000.369976210288
1000.440125946299
992.8446411412955
1003.785408870168
1003.44012171187
1001.79238837737
1000.938065880003
1001.265553945716
993.1058896593748
1005.261698885522
996.1561030304623
995.8195851435092
1002.173601700354
1004.522973326479
997.8613539897625
1005.005046756867
1002.173601714784
998.7799628526044
994.3248021050414
1001.745244761108
1005.131582309069
996.9561404401618
1002.544952712522
997.4207212274008
1001.149687610515
998.6540441574965
1001.785607685795
999.3727298911001
1003.961069153919
995.0199023872057
995.5719910461951
999.5512713306101
996.2174847248746
998.159981368374
1001.685353043765
1001.240643011451
997.9369571599746
1002.779352676377
1001.125319997846
994.8725568259069
996.6648592217573
1002.592822830862
1001.571154189229
1001.188230864683
1000.183967890463
1004.618482344105
1006.11322970715
1002.049155884594
996.7871207524297
1005.279268656777
1000.464405515767
1005.754746904047
1001.566119185114
994.41990793321
1000.93293379547
1008.341193597981
998.6161883857769
999.2863609906777
1006.772915072369
1000.049407659202
998.564816177588
997.8979899682856
995.7215285983079
990.6090476153772
1000.32261687975
997.0048585803338
1000.322616856789
1001.883007315369
1001.21065704478
1001.883007308645
1000.277580568119
1002.018072034783
1002.018072015867
997.1092286473289
1001.645982217205
1000.585744937089
993.668432885456
1001.123288437733
997.8144906652378
1001.764510175725
999.2008523573847
998.1400658717395
1010.207221624625
1000.301509822043
1003.047895704266
1003.047895743985
1003.582114640178
999.2096874808401
999.5826233313283
999.9549890317908
1001.093897339056
1001.576065981675
999.4189765065942
1001.370736338912
1000.661358170618
1007.266657798207
1000
1000.400682034298
998.9655073488964
998.9655073661905
999.7003472326455
999.9684670142009
994.1342953588326
994.699281832784
1001.87960972279
1004.501543124655
997.4351320496877
997.4018775011168
1000.378341003532
994.7441852720476
998.0264775944117
998.0264775866333
1000.611947710266
1006.702803236082
1008.705987658573
1000
999.8174642704051
1000
1000
1000
1000
1000.05886795523
1000.508425301084
1000.631335250796
1001.65545758714
1001.676449469951
1001.100502428951
1000.645865100973
1000.132115939477
1000
1000
1000.047239933489
1000.528622408752
1000.97402926515
1000.826870173034
1000.241678660893
1000.038860663545
1000.141850576498
1000.959038986054
1000.844955329259
1000.748089465003
1000.407730205287
1000.400429973609
1001.30966185908
1000.61663252975
1002.147885340545
1000.61659230266
1000.325992039921
1000.591621775959
1000.221949679629
1000.221949785249
999.3600947437529
993.3628732741381
994.4092948022965
1000.399093749053
1000.462929461152
1000.462929454384
999.2517175218923
1011.146998383962
1001.772323176483
1004.087579485471
999.2517174928547
1017.374342771693
1001.110084705354
998.255694266911
1001.477241511872
1002.8990938556
996.6900976864356