<VTKFile type="PolyData" version="1.0" byte_order="LittleEndian" header_type="UInt64">
  <PolyData>
    <Piece NumberOfPoints="2534" NumberOfVerts="2534">
      <Points>
        <DataArray type="Float64" Name="Points" NumberOfComponents="3" format="ascii">
0.1200473735458309 0.0634861018818338 0.08895632126125658
0.1276497651855468 0.04801550596938173 0.08627014280556156
0.1207862486135285 0.05378324335785575 0.0853615604626658
0.1223085503269385 0.06978766897112305 0.09005300947942473
0.133435714827278 0.08107276978688184 0.0870502429582541
0.09467279031675463 0.1167108115473404 0.03791824409467989
0.1306775532270907 0.06824986769248367 0.09248753046958839
0.1400656982081327 0.08060328416124173 0.06699242200146856
0.1376043015476734 0.08095211528249979 0.08479496417053213
0.1182655939219428 0.07667347563090535 0.08184155882233363
0.1129481611184023 0.1189524021783911 0.09381679681745435
0.08805101308706743 0.1166646127149133 0.03745389680523738
0.1190401540488587 0.08210978369187127 0.07124551195877035
0.1069108341740636 0.123045834796776 0.09358117808928673
0.1297268912986463 0.07464968172105695 0.09020355438786515
0.09528255269105998 0.0652362952829962 0.06400050957205086
0.1352462669961805 0.05902526972786546 0.09401693538480901
0.1011859357917385 0.07939140542134783 0.06371301376164455
0.1385134532686559 0.06532963011516178 0.0882602698197477
0.100148667634177 0.08310484193892087 0.06382448213790377
0.1088643968469986 0.09378591045292038 0.09483495945700719
0.08792540766292414 0.06432983612600925 0.009615489791813765
0.1189664190587847 0.08190922209178192 0.08838494054765146
0.1203521026950307 0.07008792321911886 0.08246172874573414
0.125579030979508 0.08104976752409662 0.05315775888855558
0.1405097562059888 0.06502935406123532 0.08525761267409723
0.1169874245330149 0.08237549242027206 0.08151622531532778
0.1434905326518947 0.08088662198974764 0.07264820957715727
0.1353253628841851 0.06643367053118687 0.09098179853770767
0.1065138981211827 0.1200473735456804 0.0889563212599021
0.1188341198216532 0.08184557920717937 0.05603410373699694
0.1388902644038075 0.07315215604512082 0.0858522863933741
0.135861201004244 0.04618617428603405 0.1042399957855894
0.1275335899963019 0.08133333286701755 0.08898193809126601
0.1169874245306959 0.08762450758455613 0.08151622531967825
0.1358612010127445 0.123813825723626 0.1042399957831319
0.1199082257691883 0.08188709088671284 0.06333889487527539
0.09452010390276569 0.06471862189378071 0.01030586701754795
0.09761772022513789 0.04291951775039785 0.02336394563788447
0.1073075151390237 0.0772801327703399 0.05182241993979416
0.1309819030496228 0.06178885321856938 0.09575177059251121
0.1213537663327109 0.07136158244943602 0.0720351298426562
0.1288549511183587 0.06477731848927121 0.07350023066256117
0.1411868949219961 0.07291208838325773 0.08294058099270885
0.1400148887468244 0.05434164205675571 0.08492477185977731
0.09678200375073004 0.04279582276129566 0.01415721762494698
0.1405514423672647 0.1477124321723157 0.101212083054533
0.1278428890533897 0.07106376077411403 0.07140950801724116
0.1281443173688135 0.07710660986651048 0.07002845348954857
0.1090625608374773 0.06751040882135266 0.06574700926859862
0.1477124321703873 0.1405514423676703 0.1012120830555262
0.1415451527218985 0.06414823069051022 0.08158357610954943
0.1047637047014954 0.07471744732066556 0.06400050957682792
0.1241579516509939 0.05714666044132704 0.06835268929075494
0.1249644510258664 0.06305647214491006 0.06750354759919916
0.1290612184612241 0.04710793374868823 0.07468277700788016
0.1427487692899283 0.07267058572090843 0.07923763375409625
0.1192342602458694 0.05938198029525712 0.06447907472335856
0.1408811757466676 0.05429015626023955 0.08018104362330587
0.1042651971886329 0.06573480281078793 0.05676892696018975
0.09060859458501909 0.06881406420167449 0.06371301375737058
0.1231746278123085 0.06918351530750584 0.06522101211697577
0.1214298360803727 0.07608582136332796 0.0640585156550728
0.1011486751100088 0.115908745798789 0.03894353103972944
0.1412765932585651 0.04360054006561328 0.08153304647884023
0.1423984515818019 0.06406761704665069 0.07702479565435548
0.1433058204822332 0.07265117283384924 0.07460968203565219
0.1204493574098471 0.09418326672182897 0.08807235406788436
0.1286700211637292 0.05394982617314889 0.06552542920709564
0.1204493574106991 0.07581673327650709 0.08807235408531006
0.08689515804951095 0.06985133234932894 0.06382448212581865
0.1266976414113868 0.08254594418301246 0.06788361717059464
0.1102198704450324 0.1256701166998437 0.03660492530398103
0.1312536558748577 0.04472690655060934 0.06804209672401196
0.1183235384289495 0.0624838479051242 0.0564899099378908
0.1068462177148297 0.07139449438891857 0.08163069975948284
0.1201403313842382 0.05610562260700168 0.05562468466816846
0.1195145831876157 0.06902876052999087 0.05803244781215952
0.1416957753238801 0.05384573802854499 0.07527240045149219
0.1196669477826146 0.07528827796341266 0.05559248538223374
0.13058505759323 0.05928812660372349 0.05981168062380354
0.1069215340571079 0.07111307997492237 0.05095352060195376
0.1287650356852015 0.06570839027142064 0.0578544499133166
0.1427527807297338 0.06281063260002685 0.07174268316805858
0.1068462177037682 0.09860550561322132 0.08163069976069008
0.1093203079679091 0.1093203079679081 0.07545558728072706
0.1041323423310146 0.06586765767072575 0.01598761805058676
0.1122880409139577 0.1272758079235077 0.0767854992817948
0.1106851033412357 0.1227484738744045 0.07974269406067575
0.1189524021812686 0.0570518388802719 0.09381679681820254
0.1189524021749863 0.112948161117781 0.09381679681174332
0.1356244973241693 0.1272911925471258 0.06371462848402405
0.1272911925491838 0.1356244973244929 0.06371462848338756
0.1463712391840953 0.1166078837471893 0.06817247718777354
0.14686106335236 0.107671169281949 0.06411428905418545
0.1387118283372787 0.1387118283343708 0.06761666284077947
0.1465477424191093 0.09864783885356665 0.06141376379516179
0.1250141284376305 0.147646393756847 0.06823969725382993
0.1476463937546904 0.1250141284349872 0.06823969725038528
0.1505809780087533 0.1423326810807529 0.07911653598277499
0.1423326810806982 0.1505809780073546 0.07911653598141409
0.1484183421947532 0.1353178648023649 0.07165538048271433
0.1353178648029594 0.1484183421953792 0.07165538048414313
0.1494508272243299 0.1164815720519418 0.06462138289209114
0.1521234153700889 0.1521234153725406 0.08505970508118547
0.1618131578947369 0.1075921052631579 0.08676538461538462
0.1618131578947369 0.116628947368421 0.08676538461538462
0.1618131578947369 0.1075921052631579 0.09552692307692309
0.1618131578947369 0.116628947368421 0.09552692307692309
0.1618131578947369 0.1075921052631579 0.1042884615384616
0.1618131578947369 0.116628947368421 0.1042884615384616
0.151076344083841 0.1422391120430673 0.07250349362241429
0.1519355506939964 0.1519355506942364 0.07735860227903014
0.1188341198225099 0.08815442079610834 0.0560341037289026
0.142239112045809 0.1510763440842836 0.07250349362551199
0.1256657894736842 0.1618131578947369 0.09552692307692309
0.1527763157894737 0.1618131578947369 0.08676538461538462
0.1437394736842105 0.1618131578947369 0.08676538461538462
0.1447076368049307 0.04474788305373094 0.07217578836750702
0.1266976414072321 0.08745405581783976 0.06788361716680213
0.1334357148501044 0.08892723021978506 0.08705024295879384
0.1337601874664261 0.05041489136510047 0.06090962066308946
0.1435609589043892 0.05341043512770793 0.071554778254447
0.1347026315789474 0.1618131578947369 0.08676538461538462
0.1256657894736842 0.1618131578947369 0.08676538461538462
0.1476463937576421 0.04498587156213358 0.06823969724632215
0.1494508272203231 0.05351842795258743 0.06462138288168799
0.1618131578947369 0.1256657894736842 0.08676538461538462
0.1618131578947369 0.1347026315789474 0.08676538461538462
0.1230458347955339 0.06308916582844148 0.09358117808998365
0.1618131578947369 0.1437394736842105 0.08676538461538462
0.1231299646945528 0.06589707264481372 0.07532869561077213
0.1618131578947369 0.1527763157894737 0.08676538461538462
0.1408438134354147 0.08918911313079278 0.08119484721854787
0.1437040508647588 0.06260932649340049 0.06700835355996124
0.1618131578947369 0.1618131578947369 0.08676538461538462
0.1356244973283122 0.04270880745317236 0.0637146284798662
0.1465477424284019 0.0713521611431983 0.06141376380626351
0.1468610633542914 0.06232883071903052 0.0641142890541829
0.1392415957667427 0.05642440746417986 0.08830118003425844
0.1463712391817262 0.0533921162536695 0.06817247718306829
0.1428279426765839 0.08936728271254407 0.07693091049674135
0.1201284059592763 0.07674750434658664 0.07196594772535445
0.1419160796479538 0.07130561726059288 0.06343753517752167
0.122748473878698 0.05931489665881485 0.07974269405362248
0.1427769743851817 0.07243893239985819 0.0689178562712581
0.1259279665613221 0.07460087185548718 0.05244118179485435
0.1408438134461689 0.08081088686598578 0.08119484719979121
0.142453757367548 0.04440949061686534 0.07639710840274955
0.1402106546914741 0.04516940567957747 0.09007388311234185
0.1428279426779043 0.08063271728297593 0.07693091049242798
0.1377011166754793 0.05708159157770481 0.09145714248729936
0.1618131578947369 0.1256657894736842 0.09552692307692309
0.1618131578947369 0.1347026315789474 0.09552692307692309
0.1618131578947369 0.1437394736842105 0.09552692307692309
0.1618131578947369 0.1527763157894737 0.09552692307692309
0.1618131578947369 0.1618131578947369 0.09552692307692309
0.1618131578947369 0.1256657894736842 0.1042884615384616
0.1618131578947369 0.1347026315789474 0.1042884615384616
0.1618131578947369 0.1437394736842105 0.1042884615384616
0.1618131578947369 0.1527763157894737 0.1042884615384616
0.1618131578947369 0.1618131578947369 0.1042884615384616
0.1527763157894737 0.1618131578947369 0.09552692307692309
0.1618131578947369 0.04433421052631578 0.08676538461538462
0.1618131578947369 0.05337105263157894 0.08676538461538462
0.1618131578947369 0.06240789473684209 0.08676538461538462
[...]
      <PointData>
        <DataArray type="UInt64" Name="type" format="ascii">
1
1
1
1
1
1
1
1
1
1
1
1
1
1
1
1
1
1
1
1
1
1
1
1
1
1
1
1
1
1
1
1
1
1
1
1
1
1
1
1
1
1
1
1
1
1
1
1
1
1
1
1
1
1
1
1
1
1
1
1
1
1
1
1
1
1
1
1
1
1
1
1
1
1
1
1
1
1
1
1
1
1
1
1
1
1
1
1
1
1
1
1
1
1
1
1
1
1
1
1
1
1
1
1
1
0
0
0
0
0
0
1
1
1
1
0
0
0
1
1
1
1
1
0
0
1
1
0
0
1
0
1
0
1
1
0
1
1
1
1
1
1
1
1
1
1
1
1
1
1
1
1
0
0
0
0
0
0
0
0
0
0
0
0
0
0
0
0
0
0
0
0
0
0
0
0
0
0
0
0
0
1
1
1
0
0
0
1
1
1
1
1
1
1
1
1
1
1
1
1
1
1
0
0
1
0
0
0
0
1
1
1
1
1
1
1
1
1
1
1
1
1
1
1
1
1
1
1
1
1
1
1
1
1
1
1
1
0
0
0
0
1
1
1
0
0
0
0
0
0
0
0
0
0
0
0
0
0
0
0
0
0
1
0
0
0
0
0
0
0
0
0
0
0
0
0
0
0
0
0
0
1
0
0
0
0
1
1
0
0
0
0
0
0
1
1
1
1
0
0
0
0
0
0
0
0
0
0
0
0
0
0
0
0
0
0
0
0
0
0
0
0
1
1
1
1
1
1
1
1
1
1
1
1
1
1
1
1
1
1
1
1
1
1
1
1
1
1
1
1
1
1
1
1
0
0
0
0
0
0
0
0
0
0
0
0
0
0
0
0
0
0
0
0
0
0
0
0
0
1
1
1
1
1
1
1
1
1
1
1
1
1
1
1
1
1
1
1
1
1
1
1
1
1
1
1
1
1
1
1
1
1
1
1
1
1
1
1
1
1
1
1
1
1
1
1
1
1
1
1
1
1
1
1
1
1
1
1
1
1
1
1
1
1
1
1
1
1
1
1
1
1
1
1
1
1
1
1
1
1
1
1
1
1
1
1
1
1
1
1
1
1
1
1
1
1
1
1
1
1
1
1
1
1
1
1
1
1
1
1
1
1
1
1
1
1
1
1
1
1
1
1
1
1
1
1
1
1
1
1
1
1
1
1
1
1
1
1
1
1
1
1
1
1
1
1
1
1
1
1
1
1
1
1
1
1
1
1
1
1
1
1
1
1
1
1
1
1
1
1
1
1
1
1
1
1
1
1
1
1
1
1
1
1
1
1
1
1
1
1
1
1
1
1
1
1
1
1
1
1
1
1
1
1
1
1
1
1
1
1
1
1
1
1
1
1
1
1
1
1
1
1
1
1
1
1
1
1
1
1
1
1
1
1
1
1
1
1
1
1
1
1
1
1
1
1
1
1
1
1
1
1
0
0
1
1
1
1
1
1
1
1
0
1
1
1
0
1
1
1
1
0
0
0
1
1
1
1
0
0
0
1
1
1
1
0
0
0
1
1
1
1
0
0
0
1
1
1
1
0
0
0
1
1
1
1
1
1
1
1
1
1
1
1
1
1
1
1
1
1
1
1
1
1
1
1
1
1
1
1
1
1
1
1
1
1
1
1
1
1
1
1
1
1
1
1
1
1
1
1
1
1
1
1
1
1
1
1
1
1
1
1
1
1
1
1
1
1
1
1
1
0
0
0
1
1
1
1
0
0
0
1
1
1
1
0
0
0
1
1
1
1
1
0
0
0
1
1
1
1
1
1
1
1
1
1
1
1
1
1
1
1
1
1
1
1
1
1
1
1
1
1
1
1
1
1
1
1
1
1
1
0
0
0
0
0
1
1
1
1
1
1
1
1
1
1
1
1
1
1
1
1
1
1
1
1
1
1
1
1
1
1
1
0
0
0
0
0
0
0
0
0
1
1
1
1
1
1
1
0
0
0
0
0
0
0
0
0
1
1
1
1
1
1
1
1
1
1
1
1
1
0
0
0
0
0
0
0
0
0
1
1
1
1
1
1
1
1
1
1
1
1
1
1
1
1
1
1
1
1
1
1
1
1
1
1
1
1
1
1
1
1
1
1
1
1
1
1
1
1
1
1
1
1
1
1
1
1
1
1
1
1
1
1
1
1
1
1
0
0
1
1
1
1
1
1
1
0
1
0
1
0
0
1
0
0
0
0
0
0
0
0
0
0
0
0
1
1
1
1
1
1
1
1
1
1
1
1
1
1
1
1
1
1
1
1
1
1
1
1
1
1
1
1
1
1
1
1
1
1
1
1
1
1
1
1
1
1
0
0
0
0
0
0
1
1
1
1
1
1
1
1
1
1
1
1
1
1
1
1
1
1
1
1
1
1
1
1
1
1
1
1
1
1
1
1
1
1
1
1
1
1
1
1
1
1
1
1
1
1
1
1
1
1
1
1
1
1
1
1
1
1
1
1
1
1
1
1
1
1
1
1
1
1
1
1
1
1
1
1
1
1
1
1
1
1
1
1
1
1
1
1
1
1
1
1
1
1
1
1
1
1
1
1
1
1
1
1
1
1
1
1
1
1
1
1
1
1
1
1
1
1
1
1
1
1
1
1
1
1
1
1
1
1
1
1
1
1
1
1
1
1
1
1
1
1
1
1
1
1
1
1
1
1
1
1
1
1
1
1
1
1
1
1
1
1
1
1
1
1
1
1
1
1
1
1
1
1
1
1
1
1
1
1
1
1
1
1
1
1
1
1
1
1
1
1
1
1
1
1
1
1
1
1
1
1
1
1
1
1
1
1
0
0
1
1
1
1
1
1
1
1
1
1
1
1
1
1
1
1
1
1
1
1
1
1
1
0
1
1
1
1
0
1
1
1
1
1
1
1
1
1
1
1
1
1
1
1
1
1
1
1
1
1
1
1
1
1
1
1
0
0
1
1
1
1
1
1
1
0
0
1
1
1
1
0
0
1
1
1
1
0
0
1
1
1
0
0
1
1
1
1
0
0
1
1
1
1
1
1
0
0
1
1
1
1
1
1
1
1
1
1
1
1
1
1
1
1
1
1
1
1
1
1
1
1
1
1
1
1
1
1
1
1
1
1
1
1
1
1
1
1
1
1
1
1
1
1
1
1
1
1
1
1
1
1
1
1
1
1
1
1
1
1
1
1
1
1
1
1
1
0
0
1
1
0
1
0
1
0
1
1
0
1
0
1
1
1
1
0
1
1
1
0
1
1
1
1
1
1
1
1
1
1
1
1
1
1
1
1
1
1
1
1
1
1
1
1
1
1
1
1
1
1
1
1
1
1
1
1
1
1
1
1
1
1
1
1
1
1
1
1
1
1
1
1
1
1
1
1
1
1
1
1
1
1
1
1
1
1
1
1
1
1
1
1
1
1
1
1
1
1
1
1
1
1
1
1
1
1
1
1
1
1
1
1
1
1
1
1
1
1
1
1
1
1
1
1
1
1
1
1
1
0
0
0
0
0
0
1
1
1
1
1
1
1
1
1
1
1
1
1
1
1
1
1
1
1
1
1
1
1
1
1
1
1
1
1
1
1
1
1
1
1
1
1
1
1
1
1
1
1
0
1
0
0
1
1
1
1
1
1
1
1
1
1
1
1
1
1
1
1
1
1
1
1
1
1
1
1
1
1
1
1
1
1
1
1
1
1
1
1
1
1
1
1
1
1
1
1
1
1
1
1
1
1
1
1
1
1
1
1
1
1
1
1
1
1
1
1
1
1
1
1
1
1
1
1
1
1
1
1
1
1
1
1
1
1
1
1
1
1
1
1
1
1
1
1
1
1
1
1
1
1
1
1
1
1
1
1
1
1
1
1
1
1
1
1
1
1
1
1
1
1
1
1
1
1
1
1
1
1
1
1
1
1
1
1
1
1
1
1
1
1
1
1
1
1
1
1
1
1
1
1
1
1
1
1
1
1
1
1
1
1
1
1
1
1
1
1
1
1
1
1
1
1
1
1
1
1
1
1
1
1
1
1
1
1
1
1
1
1
1
1
1
1
1
1
1
1
1
1
1
1
1
1
1
1
1
1
1
1
1
1
1
1
1
1
1
1
1
1
1
1
1
1
1
1
1
1
1
1
1
1
1
1
1
1
1
1
1
1
1
1
1
1
1
1
1
1
1
1
1
1
1
1
1
1
1
1
1
1
1
1
1
1
1
1
1
1
1
1
1
1
1
1
1
1
1
1
1
1
1
1
1
1
1
1
1
1
1
1
1
1
1
1
1
1
1
1
1
1
1
1
1
1
1
1
1
1
1
1
1
1
1
1
1
1
1
1
1
1
1
1
1
1
1
1
1
1
1
1
1
1
1
1
1
1
1
1
1
1
1
1
1
1
1
1
1
1
1
1
1
1
1
1
1
1
1
1
1
1
1
1
1
1
1
1
1
1
1
1
1
1
1
1
1
1
1
1
1
1
1
1
1
1
1
1
1
1
1
1
1
1
1
1
1
1
1
1
1
1
1
1
1
1
1
1
1
1
1
1
1
1
1
1
1
1
1
1
1
1
1
1
1
1
1
1
1
1
1
1
1
1
1
1
1
1
1
1
1
1
1
1
1
1
1
1
1
1
1
1
1
1
1
1
1
1
1
1
1
1
1
1
1
1
1
1
1
1
1
1
1
1
1
1
1
1
1
1
1
1
1
1
1
1
1
1
1
1
1
1
1
1
1
1
1
1
1
1
1
1
1
1
1
1
1
1
1
1
1
1
1
1
1
1
1
1
1
1
1
1
1
1
1
1
1
1
1
1
1
1
1
1
1
1
1
1
1
1
1
1
1
1
1
1
1
1
1
1
1
1
1
1
1
1
1
1
1
0
0
0
0
0
0
1
1
1
1
1
1
1
1
1
1
1
1
1
1
1
1
1
1
1
0
0
0
0
0
0
0
0
0
1
1
1
1
1
1
1
1
1
1
1
1
1
1
1
1
1
1
1
1
1
1
0
0
0
0
0
0
0
0
0
0
0
0
0
1
1
1
1
1
1
1
1
1
1
1
1
1
1
1
1
1
1
1
1
1
1
0
0
0
0
0
0
0
0
0
0
0
0
1
0
0
1
1
1
1
1
1
1
1
1
1
1
1
1
1
1
1
1
1
1
1
1
1
1
1
1
1
1
1
1
1
1
1
1
1
1
1
1
1
1
1
1
1
1
0
0
0
0
1
0
0
0
1
0
1
1
1
1
1
1
1
1
1
1
1
0
1
1
0
1
0
1
1
1
1
1
1
1
0
0
0
0
0
0
1
1
0
0
0
0
0
0
0
0
0
0
0
0
0
0
0
0
1
0
0
0
0
0
0
0
1
0
0
0
0
0
0
1
0
0
0
0
0
0
0
0
0
0
0
0
0
0
0
0
0
0
0
0
0
0
0
0
0
0
0
0
0
0
0
0
1
0
0
0
0
0
0
0
1
1
0
1
1
0
1
1
1
1
1
1
1
1
0
0
1
1
1
1
1
1
0
0
0
0
0
1
1
0
0
0
0
0
0
0
0
1
0
0
0
0
0
0
0
0
0
0
0
0
0
0
0
1
1
1
1
1
1
1
1
1
0
0
1
1
1
1
1
1
1
1
1
1
1
1
1
1
1
0
0
0
0
1
1
1
1
1
0
0
0
0
0
0
0
0
0
0
0
1
0
0
1
1
1
1
1
1
0
1
1
1
0
0
0
0
0
0
1
1
1
1
1
0
1
0
0
0
0
0
0
1
        </DataArray>
        <DataArray type="Float64" Name="density" format="ascii">
1000.721885688086
1000.751669191958
1002.169184921343
999.9228338005128
1000.781515882962
1002.601355778364
1003.174537708075
1006.9059059412
999.4036700254103
1000.949336519126
999.4720527228692
1002.754070020231
998.2571309741253
1000.215557042614
1001.106708828036
999.3564777459376
999.5112662128714
1001.733954185609
1000.998774239325
1001.356167092738
999.2818866069864
1000.45378109808
999.5720205235815
1002.425019063259
1002.019434212811
998.718029778355
1002.54516814978
999.5623494989931
1000.605912409191
1000.721885659503
997.6576569911861
999.5477332587171
999.7302990875526
1002.855914579322
1002.545168146043
999.7302990536845
999.3342997917745
998.6508829346852
992.753561693617
1001.708564187241
1000.874535283171
1000.217504679039
995.190767581026
998.3815032808491
1001.921487369438
1003.916428503242
1000.937092345684
996.2693838280035
993.467148836442
1004.118706410851
1000.937092354103
1003.627620654674
999.3564777670584
999.049666795179
1002.561542221495
1003.521048918035
997.3962271959351
998.1687623810129
996.2360340755606
1002.136388942497
1001.733954071716
1003.018671379541
1002.107543923367
1001.571347120478
999.5222930141747
999.8615821225894
1001.399146332379
999.5088457731761
1002.373818887853
999.5088457569983
1001.356167064872
1001.415255092034
1006.08441060972
1003.11236820388
998.7069845201713
998.8250655165798
997.7705401747803
1001.954947997898
998.4226004408673
998.8359661308392
1002.96512777146
1002.205515465198
1003.258621012155
1001.361746450914
998.8250654091389
999.1140238726648
1001.811000843353
996.4822256414303
999.0585875121977
999.4720527907207
999.472052707755
1001.090497793657
1001.090497779717
999.6067460691115
1003.571696737791
1000.232255928679
1001.932117419811
999.0307150936862
999.03071514107
999.2643374602235
999.2643374768458
999.5319857869923
999.5319857471628
1000.003867737459
999.2158881036802
1000
1000
1000
1000
1000
1000
999.2834282899421
999.9456410211703
997.6576569770267
999.2834282820285
1000
1000
1000
999.905015081723
1001.415255119134
1000.781515893618
994.0768083132235
999.1079113062758
1000
1000
999.0307150726684
1000.003867719678
1000
1000
1000.215557028193
1000
1000.442650530479
1000
1001.763145505808
1004.915229521619
1001.719156129654
1001.090497773873
1001.93211733984
1003.571696666364
1000.152720170483
999.6067460342481
998.4885060857653
998.3332095677389
997.0478663726184
999.0585875795258
1006.157629660967
1002.255189478663
1001.763145431818
999.5053052018718
998.7992483582491
998.4885060482609
1000.467361837852
1000
1000
1000
1000
1000.070108489534
1000
1000
1000
1000
1000
1000
1000
1000
1000
1000
1000
1000
1000
1000
1000
1000
1000
1000
1000
1000
1000
1000
1000
1000
1002.425019027785
1000.217504590758
1003.62762065727
1000
1000
1000
999.3342997877718
998.8291513889712
999.5623495099334
1001.522407936905
1001.356167119473
1001.176277760269
1001.733954146296
996.5253474323698
996.5253474108898
996.4822257093948
1000.8637303259
1000.863730290865
1006.905905967702
999.4036700850787
999.5720205163776
1000
1000
1002.855914583559
1000
1000
1000
1000
1002.019434224218
997.6653175714379
1003.258621077536
998.2571309759668
1002.107543908214
999.7976516126574
1002.965127794157
993.4671488477252
998.3332095624111
1000.949336483978
1001.522407932542
999.5757033734528
999.5757034743355
1001.494345942781
1001.494346022707
999.0571615637309
999.057161565539
1003.24565304974
1003.245653169054
1000.968148350098
1003.424329824968
998.9758134777603
998.9758137104469
996.031547754905
996.0315475221794
1006.041149519857
999.5238257612328
1004.924641304733
1008.609467829511
1023.35153183479
1004.551973684072
1000
1013.387880074777
1004.118435276496
1006.453086252294
1001.830926064489
1000.016620331784
1000
1000
1000
1000.412676947968
1000.129982486199
1000
1000
1000
1000.084744291031
1000.109695466643
1000
1000
1000.066352010415
1000.082739405213
1000.157410047764
1000.722123565352
997.3137171002087
1002.718718739514
1000.4191239862
1000.297583347363
1000.113504460122
1000.225895137516
1002.518851248679
1000.588295314537
1000.381641433219
1000
1000
1003.195677696061
1002.690955222757
1000.804100894187
1000.224945812098
1001.746937879526
1001.162951597538
1000.37908258437
1002.518851393448
997.2268001576421
1000.127419571692
1000
1004.551973647211
1023.351532002499
997.2268004539624
999.9800827080452
1000.379082745636
1001.162951731942
1000.93858127255
1000.224945628121
1000.804100743835
1002.690955288793
991.0715551645687
1018.890691982021
1018.890691902067
992.6216353418213
1000.316146047545
1000
1000
1000.381641707156
1001.042307425779
1000.225895136551
1000.113504488475
1000.297583386301
1001.915835517727
1000.72212359709
1000.157410057271
1000.08273940513
1000
1000
1000
1000.109695464821
1000
1000
1000
1000.129982488203
1000
1000
1000
1000.016620334374
1006.672691688267
999.8613035095985
1001.837956666522
997.1937976007495
1001.837956384638
1000.57415295897
997.1937971518081
1001.729888028382
997.7807675870082
999.6572395578828
1002.561542245769
999.6572395012101
999.9800825301353
1000.521701530823
1000.521701274993
1002.142612142099
993.2750485905503
998.988629948544
1001.132869770702
1001.132870186774
999.2944226590078
999.2944226172325
1001.802712403663
1001.802712245263
992.8848732230072
1001.486748152701
996.6033250350415
997.8641867420162
1014.762452550154
990.611632732197
997.8641862688395
996.3657636123731
1015.939026027234
1013.987023588259
1008.609467954832
1000
1000.032677431332
1002.718718643727
1000
1000.166392880119
1000.938581212321
1000.687838228028
1002.095957214734
1000.316146112881
1002.433289726719
1001.92861475952
1001.042307464561
1001.34018020596
1003.629507000847
1001.915835473049
1000
1000
1000
1000
1000
1000
1000
996.3657635612888
986.958977405415
1001.811000830695
1006.478025450158
1008.658833790717
1008.65883378805
1003.457488864073
1006.639412499597
1005.125423813569
995.8985591422108
995.2179641931347
995.8985590884113
998.6508829229124
998.9140404644126
998.9140407486456
987.8089921527943
981.5982483718159
981.5982483064513
991.6133399618152
987.8089924072174
998.6508828676707
1002.534943603246
992.7535617443328
993.5720112897254
1000.453781058775
998.1221199163508
1005.902803163586
1000.949879197516
1008.992504335766
998.8659084356674
1001.074336019655
1001.074335932841
1002.030723905407
1004.511049794307
1004.199387639279
1004.199387550861
999.2468129692652
990.5999644674281
1000.63022856695
998.6744150649179
1000.420827087262
1000.420827057034
1001.517834087266
1001.517834205883
994.695373072815
994.6953730902204
1002.305882960798
1001.914313711529
1002.079176405587
1003.916428411081
998.3030361602091
999.0603186608117
999.0603187110706
997.6725401457643
1001.529852825627
1000.391599310405
1000.391599384764
1001.529852859878
998.5350718070233
995.8510595910592
1005.38443863909
994.9022687444641
988.4366171975749
997.4261454276641
1007.648971753618
1007.648971746518
992.3979616647248
993.2949365813348
1004.725645634118
999.1975239789552
1001.805791682736
1001.805791724536
999.197523991216
999.1975239871381
999.1975239739842
1001.367600856119
999.1537431640743
999.1537432546691
1006.991835265912
1004.826136895143
1004.826136919109
1002.053364283947
993.6111145230406
998.8290919301287
997.4301006594749
999.6594169892786
1004.583076362702
1001.511105884097
1000.859616423124
1001.543113464125
1000.859616387465
998.1182264479839
1002.053364328946
998.1182264511116
1002.912699003227
997.4301006130598
1001.533262137949
1001.533262116615
997.4295997611748
993.6111145205903
1002.426406738995
1001.543113430799
1002.305883011026
1005.86697352916
999.0568110940053
1002.426406672045
999.0568110646356
994.5529524172504
998.8259917520043
1006.478025407969
998.8259917462663
994.4928925462644
998.8659084267463
1001.469259474175
990.5721805223664
1001.909826462045
1001.909826508564
999.3056668121642
1005.129623522097
1005.129623484239
1001.919708986204
1001.919708987235
999.1896296382382
1000.163888032641
1003.366709619152
998.8923265764971
998.8923266006293
1002.538837268883
1009.203460205837
997.883577041011
997.8835770207219
1002.769185222977
1002.76918518559
1005.367179163745
996.1487407022302
996.1487406211595
1002.725112612477
999.998746754246
999.998746762853
1004.110902994195
999.1224797026174
997.0150453984414
1006.084410525947
1002.807658955923
1000.499831993415
997.6337499800121
997.6337499016595
1005.026057916864
1005.026057930063
999.0059160865952
999.0059160657061
992.9130626138466
1001.929804495634
1002.601355774339
993.7975236029758
1001.571347109222
1003.89037866505
1003.890378652958
999.8886045539716
997.1836110784349
1001.827761544419
998.1986763823337
1000.853462126221
1003.902834158054
993.382093480439
997.8775330182834
997.8775329840469
999.1358217236194
999.1358217319608
1000.853462129732
1000.853462098016
1000.853462114516
1001.976921928707
1001.976921898873
1001.257933313071
999.6073633741269
1002.65243837209
997.6641555511203
997.6641555048016
999.1799696502827
999.1799696639417
1002.608991078947
997.7787712411613
1001.850991463763
1001.850991519477
1000.863823260756
1001.978959476865
998.0665462088069
998.0665462697979
1003.312322438139
1003.90283419358
986.958977354328
1006.478025358558
998.6508829458436
992.753561688236
1018.877729397569
1014.762452442113
1006.041149464039
1002.053364305965
1005.902803194225
1001.517834129348
1000.751669154201
1000.94987921563
1008.992504313838
1003.424329831037
1000.751669150396
1008.658833814801
996.2360339984148
1002.030723979889
1004.725645662718
999.0496667980643
1004.199387658037
1001.469259512638
1001.44685875568
1013.387880190435
1004.118435373198
969.8698023947931
1004.11870642357
997.7705401482884
1007.648971748046
1001.805791693574
1006.45308610654
997.3137170717835
1009.552550692575
999.6594169966245
998.1221199864854
998.3233246302339
999.5068779162004
998.1687623753415
998.7069845185421
999.9050151022807
996.3013824428045
1004.915229552489
999.1079113197751
999.5053051708099
1004.061557042231
997.6653175934586
1003.521048914941
990.5999644087652
998.6744151085925
1000.420827097019
994.6953730615834
997.5502187595553
1002.305882936742
1001.914313699077
1002.079176459186
1003.916428483132
998.3030362184306
1003.521048874655
997.4301007045236
1001.543113513664
995.8510595570865
1005.384438571338
1000
1000
1003.112368227516
994.0768082296229
996.0315475918617
1003.174537802845
1005.12542378684
1003.457488696716
1003.112368229868
999.3604050564677
1000
1000.325853088588
998.7992483497873
1000.952709014757
1000
981.5982483764354
1000.325853129195
999.5586393391798
1003.312322408864
1000
1000
1000
998.8291513647022
1003.43094401888
999.5586393781991
1000.874535321254
1000
1000
1000
1000.307823933436
999.5222930031156
1000.307823945053
1001.485964931527
1000
1000
1000
999.5053051815498
1000.721885650259
1001.485964907277
1000.646040558254
1001.340180254842
1003.629507054219
1001.915835488424
1000.841205482829
999.9050150632721
1000.646040560497
999.9228338060777
1002.433289790896
1001.928614763127
1001.042307444869
1000.841205458062
1000.287485385688
1000.618041646307
999.0571616307398
995.217964269992
1000.287485381429
1000.618041642432
998.8658286143606
998.8658285961615
990.6116327038058
999.8615820882782
999.7976516435335
1000.605912511423
1002.157574608278
1000.652132097306
1000.442650420543
999.0585874424648
994.0768082680917
1002.16918483093
1001.361746428371
998.4226004365312
995.938708380335
999.5222929570518
1002.373818851752
997.6653176648501
1002.136388997646
1001.708564223668
1000.356142199739
998.829151348033
1000.215557033069
997.0478663988714
999.5477331758748
1006.157629585891
1001.399146342628
1002.255189500164
1001.020813612144
997.3962270814369
1002.169184845483
1001.954948009173
996.6033249827065
998.8359661123984
1001.802712223055
1001.921487421383
998.7069845743672
998.0025449510197
997.7705401876178
996.3657635803984
1001.708564268314
1002.205515579528
1002.205515544609
1001.522407948557
998.7992484036693
998.3815033107394
999.9800826384707
998.7180297606022
1003.0186713649
997.4261454415636
999.0496667424519
1000.152720214613
998.168762332213
1002.561542196494
1001.356167099122
1001.733954178201
999.356477805489
999.3564777750912
1004.11870644358
1000.998774326816
996.5010007634572
996.2693837688563
1008.609467940438
1013.987023722747
1015.939026130394
1000.467361954241
995.1907674712759
1001.176277834428
996.4822255525892
1002.718718690104
1000.032677421761
1000
999.7976516644582
1001.106708847682
999.5112662439989
1001.020813579991
1000.938581185265
1000.16639285398
1000
998.0665462711363
1001.850991498775
997.7787712916072
1002.608991061951
999.1799696516774
1000.316146093489
1002.095957153492
1000.687838240875
999.5001755938541
999.5001756100734
1001.257933324031
999.6073634246897
1001.780854791401
1001.78085481649
999.3099021678925
1003.245653231991
991.0715550881662
1001.48674811023
992.6216352993057
1001.074335990549
999.3099021327173
998.1986763412407
1001.827761541049
1001.827761509105
1001.827761586547
997.6725400994183
998.2208940925256
994.9022687689542
998.2208940903174
1001.978959417706
999.8886045315239
995.2665595677614
999.8886045661073
997.864186190685
992.8848728799796
999.8886045931047
1002.157574142405
1001.571347205802
993.7975236723788
1001.523274059631
993.9597456536662
997.199108892916
999.0568110892456
1000.659177297127
1000.018135256948
1000.73452976151
1019.777041909187
1002.838459007246
992.3979617948572
1002.601355844963
1001.929804529888
993.2949364388651
1000.372506754988
1002.769185202227
1002.754070026669
1004.826136921254
1002.754070029629
1001.367600878839
1004.826136917357
994.4928924829235
998.825991791182
1006.991835265265
993.3820935094697
997.8279916669491
1024.554737458284
1001.446858718942
1003.213295304869
969.8698022143352
993.4075185541219
1009.552550714297
1004.606725297647
998.323324594228
999.2829840362559
994.0714570085955
993.9597456967931
1000
1000
1000
1000
1001.133679278858
1000.041938989036
1000
1003.61220730075
1021.09648473712
993.6139395199571
997.1991089351301
994.545901540405
995.266559529552
994.5333066754523
995.9387084042703
992.913062681115
1019.777041896055
1000.73452968622
1000.018135255827
1000.659177258016
1002.838458957129
1000
1000
1000
1000
1001.523274041568
988.7064997038683
1018.877729249996
1000.453781094022
1002.261499496813
997.5502186956272
992.6913241793435
996.8890421635519
1008.049912953385
1004.403734056651
1000.372506591021
997.827991626324
1024.554737422201
1000
1000
1000
1000
1001.133679254226
1000.041938996956
1000
1003.612207332313
1021.096484725806
993.6139395758704
994.0714569723664
994.545901537989
994.5333063753333
999.2829840417223
1004.606725200781
993.4075184662288
1003.21329530263
1004.403734134963
1008.049912988262
996.8890422424927
992.6913242325805
1002.261499496952
1000.453781108418
988.7064996848976
994.5529524302392