<VTKFile type="PolyData" version="1.0" byte_order="LittleEndian" header_type="UInt64">
  <PolyData>
    <Piece NumberOfPoints="1751" NumberOfVerts="1751">
      <Points>
        <DataArray type="Float64" Name="Points" NumberOfComponents="3" format="ascii">
0.07255729797803923 0.06996921984692689 0.03145122819546643
0.05963648563195199 0.04273209142079404 0.0251530360995165
0.04782965948600562 0.09978804062356263 0.006821676347286576
0.04994967257070421 0.06586221033588793 0.03915561096444132
0.04583967392560976 0.1164680712397586 0.01413517626742438
0.06586551465683957 0.04350943114531901 0.02384171172872851
0.05872218273810424 0.0438390194917075 0.004593645324158713
0.02002657230025232 0.1064966538063008 0.02276165842352604
0.04259001121758484 0.04259001121658119 0.04372108370794046
0.0528539327488832 0.06753120573928445 0.0154927961890464
0.06329203659726387 0.04386602889811133 0.01708179921651637
0.04906139622739983 0.04410619726717423 0.01393176126908553
0.05264502030661085 0.04382429183959428 0.02083795223026848
0.03602369169783559 0.04572657664096941 0.008603625643167471
0.05314398793438283 0.06717467487598909 0.03457429481675169
0.0339662955428385 0.04383078727189304 0.02332406266865122
0.07021195934931622 0.04782965938677537 0.006821676309887324
0.0332522783643935 0.06415793906770649 0.004979446826172407
0.04114619298570538 0.07050162817325809 0.02799737569025861
0.04499018628024656 0.0527374293641245 0.06539810705568128
0.03749847373398359 0.04625942751773251 0.06700317035738344
0.03112014348124376 0.06729221806975877 0.04062785035986956
0.06168006845325783 0.05034902578661749 0.06823866408470954
0.02286032056368013 0.09644826977001687 0.018266416882787
0.02828624007893063 0.07620951834939473 0.02599079060467545
0.02222130760221233 0.07307949352924038 0.02267288651375659
0.05273742936749364 0.04499018628723697 0.06539810706165962
0.05158139216266627 0.05158139217592674 0.07348547263848584
0.02829879524525247 0.075634393359963 0.03185285630618857
0.04035546799320719 0.0733202751498425 0.01798548400549215
0.008186842105263157 0.07144473684210526 0.1042884615384616
0.008186842105263157 0.07144473684210526 0.09552692307692309
0.008186842105263157 0.07144473684210526 0.08676538461538462
0.06944018495621787 0.0790569979369433 0.03338569675613919
0.05070595252901045 0.07302011508722796 0.03463988842868179
0.02897150666899275 0.07529444710992038 0.03785013851247107
0.03262279673364992 0.06959919300685188 0.0443309423416155
0.04108730459368221 0.04861476402995733 0.06738628020499203
0.04488207044410753 0.1101067929357854 0.01224273207337489
0.05811129806526481 0.04940483254088118 0.06357040809643796
0.04940483251930911 0.05811129805415374 0.06357040808380268
0.03437916735104173 0.06974239619443773 0.04642609514702605
0.05067210897747186 0.05067210898046103 0.06831265135250446
0.06153679719338231 0.06153679720134686 0.06489264043607201
0.02387155644110836 0.08876472269194685 0.01543501603070843
0.02387155649816648 0.08123527737684268 0.01543501590849355
0.0566912806362094 0.07397461852972832 0.01465368146917642
0.03516402972277138 0.1083527298103792 0.04573510195854306
0.04628097060439534 0.04628097062509606 0.07070860877361959
0.05532723645863543 0.05532723645127199 0.06575888291328799
0.06725283548498054 0.07051705023554221 0.008449466692442198
0.05034902578670125 0.06168006843825521 0.06823866408659299
0.04854128202082435 0.1025131451517745 0.001347142222564732
0.0387697957028427 0.07199642595685955 0.0488984317647562
0.03942503649546868 0.07773465122567194 0.0476475569159128
0.06902151437761488 0.07972914678209182 0.007876353195617726
0.05034902577595485 0.1083199315552782 0.06823866408630791
0.01785257875925881 0.1153813199118352 0.02566532614568783
0.05312813806809172 0.0725936241434505 0.009653814927804974
0.06996921982698315 0.0725572979374207 0.03145122820042624
0.03003017437819364 0.08970911749601053 0.007979910179376158
0.03003017440034961 0.08029088252578219 0.007979910087037152
0.06820067953494223 0.0758313668876555 0.0412822997639706
0.05532723645097273 0.114672763543705 0.06575888290974599
0.04940483253846303 0.1118887019402744 0.06357040809811895
0.0615367972000594 0.1084632028134879 0.06489264043310061
0.03340133571225393 0.07637516427351281 0.04532866018809223
0.04482171766055578 0.07070739161034073 0.01617288285361534
0.02977204565418048 0.06889989426912128 0.03697649311529069
0.05160368161781302 0.107589557755971 0.05745698629939936
0.0438390192505665 0.111277817328443 0.004593645507358163
0.03077929488737526 0.07569419855897185 0.04231738416958757
0.05607937688520103 0.1139206231252095 0.05304288094239772
0.05620862306668688 0.07249218446489221 0.02681965689770555
0.0552358187104626 0.06906596763609429 0.02048684109686684
0.04780501800719856 0.07288247001254967 0.04325375106525933
0.06785086799917948 0.1101349183762123 0.06109794369776059
0.02228525655995032 0.1061423011672114 0.01897180390605212
0.04154119392672632 0.115990087767436 0.05902698895867591
0.0480254174189003 0.07773961795649023 0.04080875339965605
0.04157092573899839 0.07548545718246959 0.02902245267024776
0.07004803868048867 0.1057239741845537 0.05541432023501798
0.008186842105263157 0.07144473684210526 0.007911538461538463
0.008186842105263157 0.07144473684210526 0.01667307692307693
0.008186842105263157 0.07144473684210526 0.02543461538461539
0.04802079380137024 0.1053530050733649 0.05144197970947156
0.02470208634298505 0.09869865776143025 0.01476637639929955
0.008186842105263157 0.07144473684210526 0.03419615384615385
0.008186842105263157 0.07144473684210526 0.04295769230769231
0.008186842105263157 0.07144473684210526 0.05171923076923078
0.008186842105263157 0.07144473684210526 0.06048076923076924
0.04782965927370759 0.07021195931805181 0.006821676262020866
0.05229201151423267 0.1110799685360596 0.04439474401308709
0.02759890034106234 0.0718825709457533 0.01124498903716111
0.008186842105263157 0.07144473684210526 0.07800384615384616
0.008186842105263157 0.07144473684210526 0.0692423076923077
0.04000293767398772 0.09855060032936122 0.0009315093684678433
0.03510461866354666 0.07350814459172079 0.002158630110968282
0.04000054051010291 0.1123592404895328 0.05263721708588197
0.04900107607417467 0.06714531625014197 0.0639964613523705
0.02624617529174843 0.08961197220661031 0.01175702190557689
0.02982566428130642 0.07160371924422582 0.009717989145670656
0.06714531624344702 0.04900107605374395 0.06399646136105698
0.07070739158035411 0.04482171769566211 0.0161728828150727
0.02982566430544961 0.0983962807322966 0.00971798929377595
0.04900107605770618 0.1028546837678544 0.06399646135930354
0.04000293773459731 0.07144939970401037 0.000931509074398999
0.02470208631354336 0.07130134235482476 0.0147663764189251
0.02624617526567408 0.08038802787515664 0.01175702185924336
0.03948274607400964 0.1046892658603851 0.0505210020514725
0.008186842105263157 0.116628947368421 0.1042884615384616
0.008186842105263157 0.1075921052631579 0.1042884615384616
0.02882941022501693 0.04661488053425556 0.01117668995741051
0.008186842105263157 0.08048157894736842 0.0692423076923077
0.008186842105263157 0.08048157894736842 0.07800384615384616
0.03222842104254246 0.08047366996141392 0.005852150909068849
0.05513380458246637 0.1100410284852457 0.04057282026051712
0.05995897151214344 0.1148661954423853 0.04057282026559453
0.03667691944843932 0.1079758841139273 0.048189429294317
0.008186842105263157 0.1075921052631579 0.08676538461538462
0.03532600701463807 0.1137002170286793 0.04351162927450793
0.008186842105263157 0.116628947368421 0.08676538461538462
0.04854128192638284 0.06748685491233751 0.00134714207650109
0.008186842105263157 0.116628947368421 0.09552692307692309
0.04708627940177425 0.109899551583417 0.05728827201675338
0.02286032066455236 0.07355173023389822 0.01826641685068141
0.008186842105263157 0.1075921052631579 0.0692423076923077
0.05261857598972008 0.1074907066405262 0.01513266857301386
0.03289192677049212 0.1145564837764202 0.002831261652293561
0.008186842105263157 0.116628947368421 0.0692423076923077
0.05986508162599211 0.06785086798793548 0.06109794370378847
0.03730325237376875 0.08926249294728532 0.0116057590152915
0.02260739894998453 0.08842630784333183 0.019480549972428
0.05285393271196329 0.1024687942371017 0.01549279615784644
0.02897150660663289 0.09470555293296185 0.03785013841344886
0.05312813813008531 0.0974063758251814 0.009653814965025013
0.008186842105263157 0.1075921052631579 0.07800384615384616
0.008186842105263157 0.116628947368421 0.07800384615384616
0.05160368158757349 0.06241044219858144 0.05745698629573814
0.06785086798841242 0.05986508163614855 0.06109794370074562
0.07397461848685559 0.1133087193538581 0.01465368150875799
0.008186842105263157 0.1075921052631579 0.09552692307692309
0.06717467489871007 0.05314398797521566 0.03457429479488684
0.06241044222703595 0.05160368158270035 0.05745698630456626
0.05986508163868712 0.1021491320123178 0.0610979437006773
0.02926983375258086 0.05471327796430762 0.03136688000478854
0.05603651613973319 0.05603651613439737 0.005251901628814793
0.03394129870278643 0.04484167135011081 0.02755705070712855
0.02967350447652153 0.04316490502711325 0.04115459419525614
0.0475072819981131 0.05601478405592796 0.0329493398177166
0.02265769983764278 0.1143039931464584 0.01712653884710325
0.0291476648360809 0.1131609941695619 0.01240916911572917
0.01920767610624039 0.1149896749043638 0.02145317653184745
0.06326748942430746 0.05603008014248207 0.002699157001829552
0.03325227837620644 0.1058420608659542 0.004979446688266905
0.03516402973766335 0.06164727018326318 0.04573510196971835
0.02631766133918242 0.1059643093451274 0.01448989742827409
0.0315033966973985 0.1141172357325901 0.0102401587337497
0.04386602876533567 0.1067079634909971 0.0170817992943974
0.0314056646448674 0.1061182000483086 0.009360135861779601
0.047805018015429 0.09711752997485709 0.04325375108020852
0.04055274642728324 0.06454698446504586 0.03066094496867593
0.05563036281932517 0.08725809265211706 0.002060960310960328
[...]
      <PointData>
        <DataArray type="UInt64" Name="type" format="ascii">
1
1
1
1
1
1
1
1
1
1
1
1
1
1
1
1
1
1
1
1
1
1
1
1
1
1
1
1
1
1
0
0
0
1
1
1
1
1
1
1
1
1
1
1
1
1
1
1
1
1
1
1
1
1
1
1
1
1
1
1
1
1
1
1
1
1
1
1
1
1
1
1
1
1
1
1
1
1
1
1
1
1
0
0
0
1
1
0
0
0
0
1
1
1
0
0
1
1
1
1
1
1
1
1
1
1
1
1
1
1
0
0
1
0
0
1
1
1
1
0
1
0
1
0
1
1
0
1
1
0
1
1
1
1
1
1
0
0
1
1
1
0
1
1
1
1
1
1
1
1
1
1
1
1
1
1
1
1
1
1
1
1
1
1
1
1
1
1
1
1
1
1
1
1
1
1
1
0
0
1
1
1
1
1
1
1
0
0
1
1
1
1
1
1
1
1
1
1
1
1
1
0
0
1
0
1
0
0
0
1
0
0
0
0
0
0
0
1
0
1
1
1
1
1
0
0
0
0
0
0
0
1
1
1
1
1
1
1
1
1
1
0
0
0
0
0
0
1
1
1
1
1
1
1
0
1
0
1
0
0
0
0
0
0
0
0
0
0
0
0
0
1
1
1
0
0
0
1
0
0
0
1
1
1
1
1
1
1
1
1
0
1
1
0
0
0
1
0
1
0
0
1
1
0
1
1
0
0
0
1
1
1
1
0
0
1
0
0
1
1
0
0
1
1
1
1
1
0
0
1
1
1
1
1
0
0
1
1
1
1
1
1
0
0
1
1
1
1
1
1
1
1
1
1
1
1
1
1
1
1
1
1
1
1
1
1
1
1
1
1
1
1
1
1
1
1
1
1
1
1
1
1
1
1
1
1
1
1
1
1
1
1
1
1
1
1
1
1
1
1
1
1
1
1
1
0
0
1
1
1
1
1
1
1
1
1
1
1
1
1
0
1
0
1
1
1
0
1
1
1
1
1
0
1
1
1
0
1
1
1
1
1
1
1
0
1
1
1
1
1
0
1
1
1
1
1
1
1
1
1
1
1
1
1
1
1
1
1
1
1
1
1
1
1
1
1
1
1
1
1
1
1
1
1
1
1
1
1
1
0
1
0
0
0
0
1
1
1
0
0
0
0
1
1
1
1
1
1
1
1
1
1
1
1
1
1
0
0
0
1
0
0
0
1
0
0
0
0
0
0
0
0
0
1
1
1
0
0
0
1
0
1
1
0
0
0
0
0
0
0
0
0
1
1
1
1
1
1
1
1
1
1
1
1
1
1
1
1
1
1
1
1
1
1
1
1
0
0
0
0
0
0
1
1
1
0
0
0
0
0
0
0
0
1
1
0
0
1
1
1
1
1
0
0
0
0
1
1
1
1
1
1
1
1
0
0
0
0
0
0
1
1
1
1
1
1
1
1
1
1
1
0
1
0
0
1
1
0
0
1
0
1
1
0
1
0
0
0
0
0
1
0
0
0
0
0
1
0
0
0
0
1
1
0
0
0
1
1
1
0
0
1
1
1
0
0
0
0
1
0
0
0
0
0
0
0
0
0
0
0
0
1
0
0
0
0
0
0
0
0
1
1
0
1
0
0
0
0
1
1
1
1
1
1
1
0
1
1
1
1
1
1
1
1
1
1
1
1
1
1
1
1
1
1
1
0
1
1
1
1
1
0
1
0
1
0
1
1
1
1
1
1
1
1
1
1
1
1
1
1
1
1
1
1
1
1
1
1
1
1
1
1
1
1
1
1
1
1
1
1
1
1
1
1
1
1
1
1
0
0
0
0
1
1
1
1
0
0
0
0
0
0
0
0
0
0
0
0
0
0
0
0
0
0
0
0
0
0
0
0
0
0
0
0
0
0
0
0
0
0
0
0
0
0
0
0
0
0
0
0
0
0
0
0
0
0
0
0
0
0
0
0
0
0
0
0
0
0
0
0
0
0
0
0
0
0
0
0
0
0
0
0
0
0
0
0
0
0
0
0
0
0
0
0
0
0
0
0
0
0
0
0
0
0
0
0
0
0
0
0
0
0
0
0
0
0
0
0
0
0
0
0
0
0
0
0
0
0
0
0
1
1
1
1
1
1
0
1
0
0
0
0
0
0
0
0
0
0
0
0
0
0
0
0
0
1
1
1
1
1
1
1
1
1
1
1
1
1
1
1
1
1
1
1
1
1
1
1
1
1
1
1
1
1
1
1
1
1
1
1
1
1
1
1
1
1
1
1
1
1
1
1
1
1
1
1
1
1
1
1
1
1
1
1
1
1
1
1
1
1
1
1
1
1
1
1
1
1
1
1
1
1
1
1
1
1
1
1
1
1
1
1
1
1
1
1
1
1
1
1
1
1
1
1
1
1
1
1
1
1
1
1
1
1
1
1
1
1
1
1
1
1
1
1
1
1
1
1
1
1
1
1
1
1
1
1
1
1
1
1
1
1
1
1
1
1
1
1
1
1
1
1
1
1
1
1
1
1
1
1
1
1
1
1
1
1
1
1
1
1
1
1
1
1
1
1
1
1
1
1
1
1
1
1
1
1
1
1
1
1
1
1
1
1
1
1
1
1
1
1
1
1
1
1
1
1
1
1
0
0
0
0
0
0
0
0
0
0
0
0
0
0
0
0
0
0
1
0
0
0
1
1
1
1
1
1
1
1
1
1
1
1
1
1
1
1
1
1
1
1
1
1
1
1
1
1
1
1
1
1
1
1
1
1
1
1
1
1
1
1
1
1
1
0
0
1
1
0
0
0
0
0
1
1
0
1
0
1
0
1
0
1
0
1
1
1
1
1
1
1
1
0
1
0
1
1
1
1
1
1
1
1
1
1
0
1
1
1
1
1
1
1
1
1
1
1
1
1
1
1
1
1
1
1
1
1
1
1
1
1
1
1
1
1
1
1
1
1
1
1
1
1
1
1
0
0
1
0
0
0
1
0
1
1
1
1
1
1
1
1
1
1
1
1
1
1
1
1
1
1
1
1
1
1
1
1
1
1
1
1
1
1
1
1
1
1
1
1
1
1
0
0
0
1
1
0
0
0
1
1
1
0
1
1
1
0
0
0
0
0
0
0
0
0
0
0
0
0
0
0
1
0
0
0
1
0
0
0
1
0
0
0
1
1
1
1
1
1
1
1
1
1
1
1
1
1
1
0
1
1
1
1
1
1
1
1
1
1
1
1
1
1
1
1
1
1
1
1
1
1
1
1
1
1
1
1
1
1
1
1
1
1
1
1
1
1
1
1
1
1
1
1
1
1
1
1
0
0
0
0
0
1
0
1
1
0
0
1
0
1
1
1
1
1
1
1
1
1
1
1
1
1
1
1
1
1
1
1
1
1
1
1
1
1
1
1
1
1
1
1
1
1
1
1
1
1
1
1
1
1
1
1
1
1
1
1
1
1
1
1
1
1
1
1
1
1
1
1
1
0
0
0
0
0
0
0
0
0
0
0
0
0
0
0
0
0
0
0
0
0
0
0
0
0
0
0
0
0
0
0
0
0
0
0
0
0
0
0
0
0
0
0
0
0
0
0
0
0
0
0
0
0
0
0
0
0
0
0
0
0
0
0
0
0
0
0
0
0
0
0
0
0
0
0
0
0
0
0
0
0
0
0
0
0
0
0
0
0
0
0
0
0
0
0
0
0
0
0
0
0
0
0
0
0
0
0
0
0
0
0
0
0
0
0
0
0
0
0
0
0
0
0
0
0
0
0
0
0
0
0
0
0
0
0
0
0
0
0
0
0
0
0
0
0
0
0
0
0
0
0
0
0
0
0
0
0
0
0
0
0
0
0
0
0
0
0
0
0
0
0
0
0
0
0
0
0
0
0
0
0
0
0
0
0
0
0
0
0
0
0
0
0
0
0
0
0
0
0
0
0
0
0
0
0
0
0
0
0
0
0
0
0
0
0
0
0
0
0
0
0
0
0
0
0
0
0
0
0
0
0
1
        </DataArray>
        <DataArray type="Float64" Name="density" format="ascii">
996.8679180645435
991.051129874123
993.9507610929799
1003.19612409304
1011.409396050626
995.3970550355307
999.6960685065018
988.3439005520239
1001.116169190561
998.392753285999
1005.65098223887
1005.574065853527
998.5652050672949
992.5918475466515
1003.311987955155
1000.513122500115
993.9507609747424
1000.545206655521
989.4546340985327
1000.799246857655
1000.056046385126
995.4055884003752
1000.445692744272
1000.65254822072
1015.450307904744
980.8366293125478
1000.799246634535
999.3573983156142
1001.57706588453
1003.078650201905
1000
1000
1000
996.6661619103264
1005.498565106868
999.9682055017455
1001.528897510334
1000.616231387735
1009.620233239009
998.1049802394548
998.1049805464581
1001.10561709021
1001.285499001294
999.6410344991797
1001.955254408508
1001.955253405147
995.8576640500771
1000.319644827703
1001.502375080231
1000.678989686489
1002.192957574593
1000.445692933187
1005.029286356434
1000.738204796147
999.5441311440659
1002.477174565016
1000.445692774854
989.5793425198901
1002.430528358711
996.8679177763371
1000.370308101038
1000.370307002328
996.2442804041351
1000.678989916541
998.1049802241224
999.6410347120022
999.6632879285091
1008.922886858072
997.8039913108726
1000.409255519975
999.6960687872942
1001.186357200598
1000.3887173366
1001.268344830053
996.377803167108
1001.646507457663
998.8559180613004
1006.888622399222
997.0492142533629
1002.500129169175
989.8669109770796
999.5852888112349
1025.581424446319
1000
1000
1000.799994254017
999.290765688239
1000
1000
1000
1000
993.9507618079476
999.1024741890609
996.8149892682861
1000
1000
991.6449387765495
1001.037193867973
1000.114043617257
999.9264252692623
1003.164674024469
1003.299426661439
999.9264252735903
1008.922886307026
1003.299424914213
999.9264255462788
991.6449413453007
999.2907654029316
1003.164672448444
999.7393357655835
1000
1000
1001.359601053355
1000
1000
1001.979515689677
998.2558288024883
998.2558291476417
999.3814831300433
1000
1000.060646332483
1000
1005.029286996046
1000
1001.151296518316
1000.652547955669
1000
996.9765548912708
1000.510481703288
1000.028547094873
998.8559179787966
998.2752023380997
986.038026198109
998.3927532653014
999.9682047450679
1002.430528596672
1000
1000.377029796455
1000.409256283069
998.8559179263931
995.8576642285071
1000
1003.311987919436
1000.409255939432
998.8559179218315
1003.665799630361
994.1311250828886
1005.034252022139
1000.811208165358
1004.665459807791
990.5844118601476
1006.442792200064
1002.296077065838
997.3729106132387
1000.545204809954
1000.319643855569
1002.626102583833
997.6370591645724
1005.650981793332
998.0865424934997
1001.646507679993
997.7186611013898
1001.813759747764
996.9765537581138
995.9520007813946
999.8821994866736
980.836631300892
997.9749244762586
1001.241074711038
999.6875915144094
1003.07864923071
998.1776998011279
1002.192957696612
995.3970558062849
1001.151297286601
996.9765548590175
997.3729113496555
1000
1000
988.8973210148305
1000.298835370323
1001.151297069247
1015.183242837389
1001.813759064191
996.8679186026222
1000.060645952969
1000
1000
1011.40939562823
999.8513537639095
996.9150650108724
999.9177576927261
997.0492146848145
1001.979516326646
1005.896825094487
991.0511295252641
1001.037195419412
996.8149890419871
999.3814824981476
1005.742409711595
1008.922886163375
1000
1000
998.275202786923
1000
995.4055890957209
1000
1000
1000
998.3927531226324
1025.581424509444
1000
1000
1000
1000
1000
1000
1003.017525547965
1027.802434416091
1003.412377757503
1003.01752571008
1000.738204361134
1003.017525873482
1004.06241334291
1000
1000
1000
1000
1000
1000
1027.80243433988
1001.92247384463
993.6686279406151
999.8513539575316
991.051130124453
1000.445942100884
999.2617870271222
999.3134731796412
996.3778016250183
1000.445940213445
999.2617860389865
1004.830012668497
1017.800659786218
1022.93270332297
1000.670520242373
1007.970740400758
1003.43258693695
1002.430528464326
1001.528897622482
1002.537468448312
997.5462318668375
995.3970540969124
998.978449813015
994.4848796303135
1005.650344288322
996.8679179883212
1000
1005.498565665813
1000
1000
1000
1000
1000
1000
1000
1000
1000
1000
1000
1000
1000
994.4848806893372
1002.29607842502
1002.626103143652
1000
1000.377029795267
1000
996.4320822643444
1000
1000.028547096234
1000.143831555682
997.6370568330672
1013.344927975391
999.8596630109915
990.5844134473934
998.0865433152998
1006.442790837197
997.8050564082477
988.3125658981885
998.5652047607774
1000
1003.311988056683
1000.510486710619
1000
1000
1000
991.910653266728
1000
1002.430528089286
1022.932703645426
1017.800660048756
1006.888623395728
999.696066350577
1000
1005.574065540984
995.8576641053895
1003.432587282241
1007.970739924351
1000
989.5793456621958
998.2558280934861
998.2558278184579
1009.620230754285
1000
1000
1002.564289787142
1000
1000
995.2455291382794
988.3439024241214
1000
1000
1011.409395103995
1005.650982553147
1001.187564915524
1004.665459282957
1005.742410381069
1000
1000
1000.298835071134
1003.196124121216
1001.268345904451
1003.412377848549
1005.498565806266
1000
1000
1000.917379473708
1015.183242697992
999.3447682125689
988.8973216554797
1003.221984218347
1003.665800290205
1000
1000
996.9150652841059
999.7393356563987
1000.911975550059
996.3778030655091
1000.784367459111
989.8669109676999
1000.784367472389
1003.19612418543
989.4546336338669
1000.997342721677
1003.086756645461
997.8039924366735
1001.145359303151
993.6686282714949
999.0293414488775
999.9177568592306
1000.159668951352
1000.348141437382
1002.192958316566
1001.18635624693
1000.159669478857
999.1024735205115
999.1024734047177
999.8513532248684
1001.646508027874
1000.229986135327
1000.229985822121
1000.293875825132
997.7186598974864
997.2913074126265
1003.221984340655
1005.02928645432
1000.114043585853
1000.895006814753
1000.895006740669
1000.388717612026
999.5441299240517
1000.44594170243
1000.445939330669
998.4334562121152
1000.159669604828
1000.79999428527
1000.799993728344
1001.268345038174
998.1196547321042
998.119654671621
1000.893251157234
999.2359428437439
1007.721950981191
999.2359430211662
1001.145359794786
1004.665458679078
1001.183675494323
1000.348142303386
1001.183675833677
999.2617856432331
999.5852888339116
1004.930270300542
1015.450309489326
999.5852888609951
998.9784487886517
1000
1000
1004.930270932223
1002.500129574073
1000.413913614952
998.1966365317525
997.3729113099992
997.5462325310708
996.6661630945625
999.5852889723828
994.1311242533076
999.6632872947306
1007.721951436092
1001.577067717443
998.2174618499795
1000
1001.105617195598
1000
1004.062412903273
1000.413914204512
999.2617868829328
1000
997.9749216107161
1001.268346671106
997.3729103241142
1001.922472525223
999.8821978410516
1000
1002.477175580053
996.2442808714876
998.1966376087603
1000
1000.503738715717
1005.896824454138
995.8576647955371
998.2174600320774
991.9062343326157
1001.241074193661
1009.620232546132
1000
991.9062345257291
999.6051785419162
996.3778015592593
1002.192957845462
1002.537466598208
1000
999.6051787535656
986.03802536329
1003.086756901592
1003.311987817204
1000.503738528131
1000.895006650069
996.6661616002917
1002.47717480064
1004.062412783257
998.8215451597371
1000.503738564097
995.123480040391
995.1234802756322
995.1234802839174
995.1234804165339
998.8215451927814
1000.784367549777
998.8215453494197
998.8215452698539
996.2442801345019
1000.89325109363
999.1269093559065
998.9035073406504
998.9035080316752
996.0093568273561
988.3439012477621
1001.037195223901
995.2455296500673
1005.034252285512
1000.652548069563
1000.616231248246
1000.731369219422
1000.731369851671
1001.979516098732
996.8149888498243
999.6051784268133
997.0492144411267
1002.564290293241
1000
1001.098854502483
1003.432587026909
1007.970740365577
1000.670520020586
1000
1001.955253845299
999.0293413407491
997.546232305195
1000.091629085823
1005.65034451877
1000
1000
989.5793436249903
999.5441303332908
1000.513122543615
999.7326360879907
1001.18635675244
1001.145359301174
989.8669107887848
1000.355155876153
996.5285538204209
996.528553811395
1006.888622949578
998.1418655945678
998.1418678592718
999.9682050834592
1000
1000
1000
1001.241074042592
1000
1000
1000
991.9106529523582
1000
1000
1000
1000
1000
1000
1000
1000
1000
999.2907655227239
1001.577067022728
1007.72195121783
1000
1000
1027.802434338489
991.6449395937988
1000
1000.51048309517
999.9361254738595
1000
1000
1000
1000
1000
1000
1000
1000
1025.581424485638
993.4520694951698
1003.164673142522
992.3679613379155
1003.299425295803
1000.818935371276
1001.533062304798
1001.533063036867
998.27520268911
1003.078649229092
1005.376630463412
986.038025988826
980.8366303130759
988.3125703794036
1001.236394935463
994.5911872328433
994.6730514144874
994.6730509303189
999.2849473227703
1014.36734902166
999.2849488869447
999.012215410314
999.01221490289
996.6537416305639
992.59184698936
1000
1000
1000
1000
1000
1000
995.9424378582596
998.5668408249272
998.5668403642896
1000
1000
1000
1000
1022.932703666864
1017.800660157027
1004.830012467816
1019.467884069395
999.687591326067
1000.122809932315
1000
1000
1015.183243502647
1000.298835272811
996.4320804428987
1001.1507099571
1000.913769493106
1000
1000
1000
1000
1000.056046278793
997.7404287161261
999.6632876372768
1005.376629884232
999.8020563044323
999.8020568920194
1003.221984012854
994.4848800982177
1000.143831471249
1000.028547091977
1000
1000
1000.377029794048
1000
1002.626102826713
999.8596632956785
997.6370583691566
1002.296077708662
990.5844126988402
998.0865426342116
1013.344927943236
997.8050557844037
1006.442791766027
1000.545205515162
1005.74240979428
1000
1001.477282665657
1000
1000
998.5976414530743
998.597642047125
1000
1000
1002.207725046171
1000.128996516334
1002.20772512044
1000.266396180059
1000.244745537165
991.5437935444033
1000.188845148165
1000
1000
1000.400746191948
1000.52734914945
1015.450308733885
1000.003971176401
1000.197405673725
1000
1001.806540987809
1000
999.3134727734304
1000
1000
1000
1000.2245146903
1001.359599683129
1002.867523488041
1000
1001.374055986552
1001.493052150336
999.1794221933543
1003.13899741114
999.3447692230518
1000
1000
1003.66579980294
1000.738204230053
997.7404287424589
1000
1000.188845255044
1000
1000
1000.36140023181
1000
1000.4007464626
1000.527349242864
1000
1000
1000.003971213074
1000.197405699166
1000
1001.806540800121
1000.224514625614
1000.244745506178
1000.100645176423
988.8973214256155
1000.091629161155
1000
1000.128996494076
1000.119205741745
1000
1000
1000
1000
1000.348141485219
997.7186603296095
1000
1001.028062021841
1019.467884273292
1001.374055878569
1001.49305213622
1000.666767373504
1000.370307416486
1000.850313135279
997.8039923982027
1001.150709833115
1002.078198993527
1002.078198517171
1004.930270621567
1000
995.9520010123721
999.3814829638018
1001.105616999624
998.1776992972794
1000.319644513389
1000.293876161035
999.8934735221187
1000.06064565495
999.8934730134599
1000.122808836691
999.385212310925
999.3454564135448
1000.913768760972
999.1711486125934
1000.850312358446
999.2071119729242
999.2071117000053
1004.1527020418
999.1711486972997
1000
1001.187565619065
1000.917379926162
995.4055891349443
993.8637057426114
999.7374578571066
1000
989.4546338777131
1000
999.7374578349516
1000
1000.360601637876
1000.811208176864
999.6776291506101
1001.528897557221
1000.114043916697
999.7393357145867
1001.922472144398
1000.355155786689
999.3852121750677
1001.330330424691
1000.493724463521
1000.911975723711
999.6776293395629
1001.165203999337
1001.165204131935
1000.493724424681
999.179422116926
1000.121742451893
999.7326361975099
996.244280871472
1004.062412652596
1002.477174794223
996.6661625126934
998.1966369484774
998.9005555641695
1000.503738643274
1000.413914258563
997.9749230178955
999.8821989403663
1003.08675697021
998.2174609707805
1001.813759210945
1005.896824793448
1002.500129663208
998.9784495127365
1002.537467992972
1000.784367538016
991.9062341941823
1000.895007005827
998.1196546277322
999.2359428487625
1001.183675428861
1000
1000
1000
1000
1001.330330422329
1000.162854915882
999.9630652901334
999.9630652809932
1000
1000
1000
1000
1000
1000
1000
1000
1000
1000
1000
1000
1000
1000
1000
1000
1000
1000
1000
1000
1000
1000
1000
1000
1000
1000
1000
1000
1000
1000
1000
1000
1000
1000
1000
1000
1000
1000
1000
1000
1000
1000
1000
1000
1000
1000
1000
1000
1000
1000
1000
1000
1000
1000
1000
1000
1000
1000
1000
1000
1000
1000
1000
1000
1000
1000
1000
1000
1000
1000
1000
1000
1000
1000
1000
1000
1000
1000
1000
1000
1000
1000
1000
1000
1000
1000
1000
1000
1000
1000
1000
1000
1000
1000
1000
1000
1000
1000
1000
1000
1000
1000
1000
1000
1000
1000
1000
1000
1000
1000
1000
1000
1000
1000
1000
1000
1000
1000
1000
1000
1000
1000
1000
1000
999.0723482040338
1000.088508278648
1000.241832400585
999.3927914236235
1000.136080683244
999.643381394476
1000
1000.090000979797
1000
1000
1000
1000
1000
1000
1000
1000
1000
1000
1000
1000
1000
1000
1000
1000
1000
998.3927533466513
999.5441312160764
998.1049802159022
1001.105617250458
997.9749240972634
1000.413914113518
1002.500128851538
999.9264252277484
998.255827481559
1000.409255935365
1000.34814212734
1000.388717563865
998.8559180668688
1001.151297082543
999.6632879832748
998.1966374761364
1005.896824351013
1000.799994545738
1001.528897551951
999.1024733217282
1000.114043975088
997.5462325091967
991.0511295983281
1000.159669721325
1000.060645715307
995.3970543640285
1001.922471976155
1001.186357143104
1003.221983972157
1005.742409662764
999.7393359982811
998.9784487994229
997.7186598174038
1000.445939628516
1002.537466432803
1001.145359834172
999.9682053636991
997.974922039893
998.1966367638656
1001.241074339344
1001.577065999468
1007.721951046139
998.2752028012997
1000.413913739748
1004.930271088507
1015.450308281581
999.7393354729707
999.696068843634
1000.319644931192
1009.620232699349
999.3814833227998
1005.650981972686
1000.370307183594
1001.979515824464
999.8821981311534
991.9062342053631
989.8669108956427
998.217460324546
1003.086757037801
1003.164672881339
1001.813759182025
1001.955253467638
998.2752024825965
999.9682048799293
999.9177577439341
1002.430528260254
1008.922885980923
997.3729113117843
1001.241074501953
1015.450309097235
1004.930270342189
1003.078648980433
1001.577067593986
1007.721951309155
1001.813759650431
989.8669108827842
995.8576644911317
991.9062346739157
999.2617857625269
1003.086756705713
998.2174615870892
999.8821991896136
998.119654761818
1000.738205014062
995.4055893143595
989.4546335608827
997.8039924747719
999.9264255190024
998.119654844323
999.2359428409568
1001.183675276016
1001.183675825849
999.6051783423126
1003.311987584478
1003.017525506398
998.3927531509577
1004.6654593495
1003.19612397317
996.8149891072608
1001.037195040484
1000.445692645128
999.2359430977074
1001.979516244358
1003.299425228969
1003.164673613094
991.6449397553221
996.9765549921715
997.3729103464384
994.1311252234349
993.9507609027273
1005.498566039853
1001.646507941574
1002.537468735594
998.978449999873
1002.500129929292
1000.738204064833
1005.896825332597
996.3778014784086
999.5441296653165
1001.268346345155
1001.955254178521
1005.029286332176
1000.348141486073
1001.105617071875
999.6632872487424
1000.370307912292
999.6051788251287
997.5462318458226
1001.528897591956
1001.186356257185
1001.145359365351
999.2907658091368
1005.650982408071
1011.409395417925
1000.122808666395
995.2455303622628
1005.034251962804
1005.034251559384
1000.122809793466
1005.74241042949
1000.73137016251
1005.376629687544
1005.376630561766
1009.620231265201
1002.564291017494
1005.574066386996
1001.098854841662
1005.029287078902
1005.57406580021
1000.513121920866
1000.513121669341
999.6960660710303
996.5285533739534
991.9106531282907
999.2907653368555
991.6449405253911
1000.319643819904
1003.299426152248
1001.53306337979
997.2913072540379
1002.626103234059
1003.196124286743
1000.06064631244
1014.367348376712
996.8149891587483
992.3679603106899
992.5918475298662
992.5918481452562
996.9765537523758
988.3125722606354
999.3134728491726
999.3134735479312
997.8050558849919
1013.34492795613
1000.545206348178
999.859663676
1003.412377613284
993.9507618270015
1003.412377634322
1001.11616885375
995.9520010371216
995.3970554731994
998.0865434163326
997.6370576309884
1005.498564768431
1001.037194303135
988.3125674189857
1004.152702338831
995.9520008296053
999.8020563307439
993.4520698912791
999.0122155019707
1002.564290349995
1003.138997876219
998.1418670505909
998.1418646841564