<VTKFile type="PolyData" version="1.0" byte_order="LittleEndian" header_type="UInt64">
  <PolyData>
    <Piece NumberOfPoints="3172" NumberOfVerts="3172">
      <Points>
        <DataArray type="Float64" Name="Points" NumberOfComponents="3" format="ascii">
0.06529751979074182 0.09592817275848778 0.1162248246580413
0.02575729518130954 0.1073967412385851 0.1434659629355436
0.07407182724113723 0.1047024802097335 0.116224824658683
0.07343068759108028 0.09656931240897147 0.1154854567900622
0.05052633528660792 0.1122267494865632 0.1179244832731174
0.05777325051352796 0.119473664713455 0.1179244832732271
0.04360119060731958 0.1125044392526218 0.1201554501302857
0.02288436943234813 0.09858478008395084 0.1272730727298674
0.03315270317648319 0.08954516935106897 0.1209102363593229
0.03342989844997748 0.09729177510934164 0.1206022916848641
0.02274065972386758 0.08941810795796819 0.1267853423415036
0.04313244112685374 0.105479572245308 0.1182919718581843
0.04458101963225579 0.1484538409567867 0.1292373437094021
0.02154615904354137 0.1254189803677825 0.129237343708599
0.04284241210739066 0.09709743439995119 0.117677616762234
0.02558199809228937 0.1154951469839391 0.1462642983084791
0.02588288169566396 0.098164879882955 0.1415364314012839
0.03161175799380624 0.1383882420061511 0.1262000170251441
0.04136650110049101 0.1286334988999381 0.1195251641539146
0.04981931299614009 0.1042305968084773 0.1144573639647522
0.04939688368730787 0.09680058434096174 0.1141868628275658
0.04751956622543287 0.1383465536990919 0.1200622101114848
0.03165344630154112 0.1224804337730074 0.1200622101103783
0.04731191242606408 0.1056847545643251 0.110885577040241
0.06431524543557932 0.1226880875750194 0.1108855770400282
0.04748881672516819 0.09664394322474569 0.1100366382690502
0.0495476572633315 0.1134121045685516 0.1105759842183759
0.05658789543178205 0.1204523427371846 0.1105759842180163
0.008186842105263157 0.08951842105263157 0.1393346153846154
0.03157345123989359 0.1146766576757013 0.1165110185718414
0.01851814020077955 0.1514818597993508 0.1359425842130516
0.04136024949194695 0.1209215395173961 0.1119581203179895
0.04907846048273636 0.1286397505080922 0.1119581203183297
0.0574537688823579 0.1125462311175188 0.1086724119647493
0.03184444119421018 0.1062332455306585 0.1148661718789112
0.02115045233360505 0.1077387028945465 0.1234238796005421
0.03556554188477804 0.1492883641632713 0.1274248045322576
0.02071163583680371 0.1344344581150621 0.1274248045330552
0.03183651745894126 0.09801026606526629 0.1135317002388638
0.0320968421776365 0.08919118245344916 0.112909465137477
0.06504377996683348 0.1143507817147458 0.1057786067973416
0.07311967023965409 0.1148632869203271 0.1050294983330604
0.05513671307922565 0.09688032976000267 0.1050294983320025
0.05564921828599362 0.1049562200330022 0.1057786067956228
0.02726613854067505 0.1503201867474553 0.1300783902435908
0.01967981325272063 0.1427338614581234 0.1300783902431633
0.03121399071019688 0.1304170157019227 0.1173714055214938
0.03958298429818038 0.1387860092904725 0.1173714055218356
0.02147105296770582 0.09857952149234339 0.1218930347470649
0.02143631740657637 0.08949896907400216 0.1212789472527917
0.04001329928912193 0.1136694412656764 0.1072957280311285
0.04221412552563688 0.09713782593113711 0.1246387482040185
0.06504502748482888 0.1049549725151461 0.1011953304904597
0.06561232698549058 0.09662337033804987 0.09991707797738594
0.07337662966201654 0.1043876730139756 0.09991707797890244
0.03083299188524027 0.1391670081150165 0.1190945335882296
0.04887265508764889 0.1211273449117608 0.104231725182161
0.04728843339372878 0.1391439820795519 0.1127360475085348
0.03085601792088775 0.122711566606645 0.1127360475083273
0.0390686867483731 0.09755169825394326 0.1038892200209847
0.03973174275000913 0.1052839265249291 0.1045964028728144
0.03934377951666348 0.08902599389422301 0.1035893229271992
0.05576909246510821 0.1142309075346916 0.1007302960496891
0.04462044175315519 0.1498852179995236 0.1228681595484428
0.02011478200013496 0.125379558246659 0.1228681595490003
0.05484413212272304 0.09700166337077033 0.09869094016516525
0.07299833662906016 0.1151558678773512 0.09869094016334551
0.05305333408602073 0.1514729142573789 0.1135335309343497
0.06404012574040961 0.1143676131406997 0.0988649398523115
0.0556323868593387 0.1059598742594692 0.09886493985302597
0.008186842105263157 0.09855526315789473 0.1831423076923077
0.04823049181521286 0.1308052966138185 0.1043997205206768
0.0391947033852002 0.1217695081840802 0.1043997205200819
0.008186842105263157 0.1347026315789474 0.1743807692307693
0.008186842105263157 0.1256657894736842 0.1743807692307693
0.03051213891242023 0.1144282682336952 0.109549786256347
0.02840752425039905 0.09783893762031043 0.1460646051650559
0.03005482708912406 0.09781684632606173 0.1074532060840888
0.02987038645171833 0.1068246190893802 0.1081138646713826
0.02437096203394464 0.09809972997869383 0.1375736898448971
0.05456098946176865 0.1080133637502619 0.136518560654438
0.0193807096040603 0.116858011128976 0.1200196153633433
0.0299394786626654 0.08940304045593664 0.1065308277517916
0.008186842105263157 0.1347026315789474 0.1831423076923077
0.008186842105263157 0.1618131578947369 0.1480961538461539
0.008186842105263157 0.1527763157894737 0.1480961538461539
0.008186842105263157 0.1437394736842105 0.1480961538461539
0.008186842105263157 0.1347026315789474 0.1480961538461539
0.008186842105263157 0.1256657894736842 0.1480961538461539
0.008186842105263157 0.116628947368421 0.1480961538461539
0.008186842105263157 0.1075921052631579 0.1480961538461539
0.008186842105263157 0.1618131578947369 0.1393346153846154
0.008186842105263157 0.1527763157894737 0.1393346153846154
0.008186842105263157 0.1437394736842105 0.1393346153846154
0.008186842105263157 0.1347026315789474 0.1393346153846154
0.008186842105263157 0.1256657894736842 0.1393346153846154
0.008186842105263157 0.116628947368421 0.1393346153846154
0.008186842105263157 0.1075921052631579 0.1393346153846154
0.008186842105263157 0.1618131578947369 0.130573076923077
0.008186842105263157 0.1527763157894737 0.130573076923077
0.008186842105263157 0.1437394736842105 0.130573076923077
0.008186842105263157 0.1347026315789474 0.130573076923077
0.008186842105263157 0.1256657894736842 0.130573076923077
0.008186842105263157 0.116628947368421 0.130573076923077
0.008186842105263157 0.1075921052631579 0.130573076923077
0.008186842105263157 0.1618131578947369 0.1218115384615385
0.008186842105263157 0.1527763157894737 0.1218115384615385
0.008186842105263157 0.1437394736842105 0.1218115384615385
0.008186842105263157 0.1347026315789474 0.1218115384615385
0.008186842105263157 0.1256657894736842 0.1218115384615385
0.008186842105263157 0.116628947368421 0.1218115384615385
0.008186842105263157 0.1075921052631579 0.1218115384615385
0.008186842105263157 0.1618131578947369 0.11305
0.008186842105263157 0.1527763157894737 0.11305
0.008186842105263157 0.1437394736842105 0.11305
0.008186842105263157 0.1347026315789474 0.11305
0.008186842105263157 0.1256657894736842 0.11305
0.008186842105263157 0.116628947368421 0.11305
0.008186842105263157 0.1075921052631579 0.11305
0.01722368421052631 0.1618131578947369 0.1480961538461539
0.02626052631578947 0.1618131578947369 0.1480961538461539
0.03529736842105263 0.1618131578947369 0.1480961538461539
0.01722368421052631 0.1618131578947369 0.11305
0.02626052631578947 0.1618131578947369 0.11305
0.03529736842105263 0.1618131578947369 0.11305
0.04433421052631578 0.1618131578947369 0.11305
0.01722368421052631 0.1618131578947369 0.1218115384615385
0.02626052631578947 0.1618131578947369 0.1218115384615385
0.03529736842105263 0.1618131578947369 0.1218115384615385
0.04433421052631578 0.1618131578947369 0.1218115384615385
0.01722368421052631 0.1618131578947369 0.130573076923077
0.02626052631578947 0.1618131578947369 0.130573076923077
0.03529736842105263 0.1618131578947369 0.130573076923077
0.01722368421052631 0.1618131578947369 0.1393346153846154
0.02626052631578947 0.1618131578947369 0.1393346153846154
0.03529736842105263 0.1618131578947369 0.1393346153846154
0.01861099741781367 0.1430345723414232 0.1085932867450098
0.008186842105263157 0.09855526315789473 0.1743807692307693
0.01853741915533293 0.125621085882936 0.1095214182946779
0.01893256192999688 0.1347452201767281 0.1139236259247907
0.01873383909904391 0.1429601391150163 0.1159905410507689
0.01828695909748964 0.1517130409031203 0.1131899228360076
0.008186842105263157 0.1075921052631579 0.1743807692307693
0.05942391060959799 0.1105760893906556 0.1272046718683422
0.02581917744358447 0.1236855830909103 0.1513725048278039
0.0261943539014016 0.1301035579836915 0.1568979533445372
0.04626046409406032 0.1368077742406662 0.1722055874044071
0.06291524332787968 0.1181953686219881 0.1471315046431238
0.01836178231278475 0.1516382176876995 0.1048092211419986
0.04433421052631578 0.1618131578947369 0.1393346153846154
0.03527835038608518 0.1515169162701307 0.106775935261818
0.02703986088497299 0.1512661609013344 0.1159905410514136
0.04433421052631578 0.1618131578947369 0.130573076923077
0.01851846789589789 0.1077072016406645 0.1040329365583045
0.01840757795283289 0.1170224144583628 0.1064526059360724
0.01848308373030214 0.13472164961435 0.1067759352622076
0.02461421730236241 0.1345011756818522 0.1639915858890905
0.03525477982287171 0.151067438070078 0.1139236259256822
0.04433421052631578 0.1618131578947369 0.1480961538461539
0.02090747071055518 0.1166819931063478 0.1258838028922169
0.03301321904848321 0.1369867809505417 0.1430892677621093
0.008186842105263157 0.1256657894736842 0.1831423076923077
0.03529736842105263 0.1618131578947369 0.1656192307692308
0.02626052631578947 0.1618131578947369 0.1568576923076923
0.008186842105263157 0.1256657894736842 0.1656192307692308
0.06893749765012595 0.1176223734860927 0.1441830423488577
0.03520041388058863 0.08890415700453443 0.1543105758584124
0.03549882431760049 0.1453857826984956 0.1639915858915716
0.03989644201674083 0.1438056460990962 0.1568979533456748
[...]
      <PointData>
        <DataArray type="UInt64" Name="type" format="ascii">
1
1
1
1
1
1
1
1
1
1
1
1
1
1
1
1
1
1
1
1
1
1
1
1
1
1
1
1
0
1
1
1
1
1
1
1
1
1
1
1
1
1
1
1
1
1
1
1
1
1
1
1
1
1
1
1
1
1
1
1
1
1
1
1
1
1
1
1
1
1
0
1
1
0
0
1
1
1
1
1
1
1
1
0
0
0
0
0
0
0
0
0
0
0
0
0
0
0
0
0
0
0
0
0
0
0
0
0
0
0
0
0
0
0
0
0
0
0
0
0
0
0
0
0
0
0
0
0
0
0
0
0
0
0
0
0
1
0
1
1
1
1
0
1
1
1
1
1
1
0
1
1
0
1
1
1
1
1
0
1
1
0
0
0
0
1
1
1
1
0
1
0
1
1
1
1
1
1
1
1
1
1
1
1
1
0
1
0
1
1
0
1
1
1
1
1
1
1
1
1
1
1
1
1
1
1
1
1
1
1
1
1
0
1
1
1
1
1
1
1
1
1
1
1
1
1
1
1
1
1
1
1
0
0
1
1
0
1
1
1
1
0
0
1
1
0
1
1
1
1
0
0
0
0
0
1
1
0
1
0
1
1
1
0
1
1
1
1
1
1
1
1
1
1
1
1
0
1
1
1
1
1
1
1
0
1
1
1
1
1
1
1
1
1
1
1
1
1
0
0
1
1
1
1
0
1
1
1
1
1
1
1
1
1
1
1
1
1
1
1
1
1
1
1
1
1
1
1
1
1
1
0
1
0
1
1
1
0
1
1
1
1
1
1
1
1
1
1
1
1
1
1
0
1
1
1
1
1
1
1
1
1
1
1
1
1
1
1
0
1
1
1
1
1
1
1
1
1
1
1
1
1
1
1
1
1
1
0
0
0
0
1
0
0
0
1
0
1
1
1
1
1
1
1
1
1
1
1
1
1
1
1
1
1
1
1
1
0
1
0
1
1
1
0
1
1
1
1
0
0
0
0
0
0
1
0
0
1
1
0
0
1
0
1
1
0
0
1
0
1
1
1
1
1
1
0
0
0
0
1
1
1
1
1
1
1
1
1
0
1
1
1
1
1
1
0
1
0
1
0
1
1
1
1
1
1
1
1
1
1
1
1
1
1
1
1
1
1
1
1
1
1
1
1
1
0
0
0
0
0
0
0
0
1
1
1
1
1
1
1
0
0
0
0
1
1
1
1
1
1
1
0
1
1
1
1
1
1
1
1
1
1
1
1
1
1
1
0
1
1
1
1
1
1
1
1
1
1
1
1
1
0
1
1
1
1
1
1
1
1
0
0
1
1
0
0
0
0
0
1
0
0
0
0
0
1
1
1
0
0
0
0
0
0
0
0
0
0
0
0
0
0
0
0
0
0
0
0
0
0
0
0
0
0
0
0
0
0
0
0
0
0
0
0
0
0
0
0
1
1
1
1
1
1
1
1
1
1
1
1
1
1
1
1
1
1
1
1
1
1
1
1
1
1
0
1
1
1
1
1
1
1
1
1
1
1
1
1
1
1
1
1
1
1
1
1
1
1
1
1
1
1
1
1
1
1
1
1
1
1
1
1
1
1
1
1
1
1
1
1
1
1
1
0
1
1
1
1
1
1
1
1
1
0
1
1
1
1
1
1
1
1
1
1
1
1
1
1
1
1
1
1
1
1
1
1
1
1
1
1
1
1
1
1
1
1
1
1
1
1
1
1
1
1
1
1
1
1
1
1
1
1
1
1
1
1
1
1
1
1
1
1
1
1
1
1
1
1
1
1
1
1
1
1
1
1
1
1
1
1
1
1
1
1
1
1
1
1
1
1
1
1
1
1
1
1
1
1
1
1
1
1
1
1
1
1
1
1
1
1
1
1
1
1
1
1
1
1
1
1
1
1
1
1
1
1
1
1
1
1
1
1
1
1
1
1
1
1
1
1
1
1
1
1
1
1
1
1
1
1
1
1
1
1
0
1
1
1
1
0
0
0
1
1
0
0
0
0
0
0
1
1
0
0
0
0
0
0
1
1
1
1
1
1
0
0
1
1
1
1
1
1
1
1
1
1
1
1
1
1
1
1
1
1
1
1
1
1
1
0
0
0
0
1
0
0
0
0
0
0
0
0
0
0
0
0
0
0
0
0
0
0
0
1
0
0
0
0
0
0
0
0
0
0
0
0
0
0
0
0
0
1
0
0
0
0
0
0
0
0
1
1
1
1
1
1
1
1
1
0
1
0
0
1
0
0
0
1
1
1
0
0
0
0
0
0
1
1
1
1
1
1
1
1
1
1
0
0
0
1
1
1
0
0
0
0
1
1
0
0
1
1
1
1
1
1
1
1
1
1
1
1
1
1
1
1
1
1
1
0
1
1
1
1
1
1
1
1
1
0
0
1
0
1
1
1
1
1
1
1
1
1
0
1
1
1
0
1
1
1
1
1
1
1
1
1
1
1
1
1
1
1
1
1
1
1
1
1
1
1
1
1
1
1
1
1
1
1
1
1
1
1
1
1
1
1
1
1
1
1
1
1
1
1
1
1
1
1
1
1
1
1
1
1
1
1
1
1
1
1
1
1
1
1
1
1
1
1
1
1
1
1
1
1
1
1
1
1
1
1
1
1
1
1
1
1
1
1
1
1
1
1
1
1
1
1
1
1
1
1
1
1
1
1
1
0
1
1
0
1
1
1
1
1
1
1
1
1
0
1
1
0
0
0
1
1
1
1
1
1
1
1
1
0
0
0
1
1
1
0
1
1
0
1
0
0
1
0
1
1
1
1
0
0
1
1
1
1
1
1
1
0
1
1
1
1
1
1
1
0
1
1
1
1
1
1
1
1
0
1
0
1
0
1
1
0
0
1
0
0
0
1
0
1
1
1
1
1
0
1
1
1
1
1
1
1
1
1
1
0
1
1
1
1
1
1
1
1
0
1
1
0
1
1
1
1
0
1
1
1
1
1
1
1
1
1
1
1
1
1
1
1
1
0
1
0
1
1
1
1
1
1
1
1
0
1
1
1
1
1
1
1
1
1
1
1
1
1
1
0
1
1
1
1
1
1
1
1
0
1
1
1
1
1
1
1
0
1
1
0
0
1
1
1
0
1
0
1
1
0
0
1
0
1
1
1
1
0
0
1
1
1
1
0
1
1
0
0
0
1
1
1
1
1
0
1
1
1
1
1
1
1
1
1
1
1
1
1
1
1
1
1
1
1
0
0
1
1
1
1
1
1
1
1
1
1
1
1
0
1
1
1
1
1
1
1
1
0
1
1
1
0
0
0
1
1
1
1
1
1
1
1
0
0
0
0
1
0
0
0
0
0
0
0
0
0
0
0
0
0
0
1
0
0
0
0
1
1
1
0
0
1
0
0
0
1
0
1
1
1
0
0
0
0
1
0
0
1
1
1
1
1
1
0
1
1
0
0
0
1
1
0
0
1
1
0
1
0
1
0
1
1
1
1
0
0
1
1
1
1
1
1
1
1
1
1
1
1
1
1
1
1
1
1
1
1
1
1
1
1
1
1
1
1
1
1
1
1
1
1
1
1
1
1
1
1
1
1
1
1
1
1
1
1
1
1
1
1
1
1
1
1
1
1
1
1
1
1
1
1
1
1
1
1
1
1
1
1
1
0
0
1
1
1
1
1
1
1
1
1
1
1
1
1
1
1
1
1
1
1
1
1
1
1
1
1
1
1
0
0
0
0
0
0
0
0
0
0
0
0
0
1
1
1
1
1
1
1
1
1
1
1
1
1
0
0
0
0
1
1
0
0
1
1
1
1
1
1
1
1
1
1
1
1
1
1
1
1
1
1
1
1
1
1
1
1
1
1
1
1
1
1
1
1
1
1
1
1
1
1
1
1
1
1
1
1
1
1
1
1
1
1
1
1
1
1
1
1
1
1
1
1
1
1
1
1
1
1
1
1
1
1
1
1
1
1
1
1
1
1
1
1
1
1
1
1
1
1
1
1
1
1
1
1
1
1
1
1
1
1
1
1
1
1
1
1
1
1
1
1
1
1
1
1
1
1
1
1
1
1
1
1
1
1
1
1
1
1
1
1
1
1
1
1
1
1
1
1
1
1
1
1
1
1
1
1
1
1
1
1
1
1
1
1
0
0
0
0
1
1
1
1
1
1
1
1
1
1
1
0
0
0
0
1
1
1
1
1
1
1
1
1
1
1
1
1
1
1
1
1
1
1
1
1
1
1
1
1
1
1
1
1
1
1
1
1
1
1
1
1
1
1
1
1
1
1
1
1
1
1
1
1
1
1
1
1
1
1
1
1
1
1
1
1
1
0
0
0
0
0
0
0
0
0
0
0
0
1
0
0
0
0
0
0
1
1
1
1
0
0
0
0
0
0
0
0
0
0
0
0
0
0
0
0
0
0
1
0
0
0
0
0
0
0
1
0
0
0
0
0
0
0
0
1
1
1
1
1
1
1
1
1
1
1
1
1
1
1
1
1
1
1
1
1
1
1
1
1
1
1
1
1
1
1
1
1
1
1
1
1
1
1
1
1
1
1
1
1
1
1
1
1
1
1
1
1
1
1
1
1
1
1
1
1
1
1
1
1
1
1
1
1
1
1
1
1
1
1
1
1
1
1
1
1
1
1
1
1
1
1
1
1
1
1
1
1
1
1
1
1
1
1
1
1
1
1
1
1
1
1
1
1
1
1
0
0
0
1
1
1
1
1
1
1
1
1
1
1
1
1
1
1
1
1
1
1
1
1
1
1
1
1
0
0
0
0
1
1
1
1
1
1
1
1
1
1
1
1
1
1
1
1
1
1
1
1
1
1
1
1
1
1
1
1
1
1
1
1
1
1
1
1
1
1
1
1
1
1
1
1
1
1
1
1
1
1
1
1
1
1
1
1
1
1
1
1
1
1
1
1
1
1
1
1
1
1
1
1
1
1
1
1
1
1
1
1
1
1
1
1
1
1
1
1
1
1
1
1
1
1
1
1
1
1
1
1
1
1
1
1
1
1
1
1
1
1
1
1
1
1
1
1
1
1
1
1
1
1
1
1
1
1
1
1
1
1
1
1
1
1
1
1
1
1
1
1
1
1
1
1
1
1
1
1
1
1
1
1
1
1
1
1
1
1
1
1
1
1
1
1
1
1
1
1
1
1
1
1
1
1
1
1
1
1
1
1
1
1
1
1
1
1
1
1
1
1
1
1
1
1
1
1
1
1
1
1
1
1
1
1
1
1
1
1
1
1
1
1
1
1
1
1
1
1
1
1
1
1
1
1
1
1
1
1
1
1
1
1
1
1
1
1
1
1
1
1
1
1
1
1
0
1
1
1
1
1
1
1
1
1
1
1
0
1
1
1
1
1
1
1
1
1
1
1
1
1
1
1
1
1
1
1
1
1
1
0
0
1
1
1
1
1
1
0
0
1
1
1
1
1
1
1
0
0
0
0
0
0
0
0
0
0
1
1
1
0
0
0
0
0
0
1
1
0
0
0
0
0
0
1
1
1
0
0
0
0
0
0
1
1
1
1
0
0
1
1
0
0
0
0
1
1
1
1
1
1
1
1
1
1
1
1
1
1
1
1
1
1
1
1
1
1
1
1
1
1
1
1
1
1
1
1
1
1
1
1
1
1
0
1
1
0
0
1
1
1
1
1
1
1
1
1
1
1
1
1
1
1
1
1
1
1
1
1
1
1
1
1
1
1
1
1
1
1
1
1
1
1
1
1
1
1
1
1
1
1
1
1
1
1
1
1
1
1
1
1
1
1
1
1
1
1
1
1
1
0
0
0
0
0
0
0
0
0
0
0
0
0
0
0
0
1
0
0
1
0
0
0
0
0
0
0
0
0
0
0
0
0
0
1
1
1
1
1
1
1
1
1
1
1
1
1
0
0
0
1
1
0
0
0
0
1
0
1
1
1
1
1
1
1
1
1
1
1
1
1
1
1
1
1
1
1
1
1
1
1
1
1
1
1
1
1
1
1
1
1
1
1
1
1
1
1
1
1
1
1
1
1
1
1
1
1
1
1
1
1
1
1
1
1
1
1
1
1
1
1
1
1
1
1
1
1
1
1
1
1
1
1
1
1
1
1
1
1
1
0
0
1
1
1
1
1
0
0
0
0
1
1
1
1
1
1
1
1
1
1
1
1
1
1
1
1
1
1
1
1
1
1
1
1
1
1
1
1
1
1
1
1
1
1
1
1
1
1
1
1
1
1
1
1
1
1
1
1
1
1
1
1
1
1
1
1
1
1
0
0
1
0
1
0
0
0
0
0
0
1
0
1
1
0
1
1
0
1
0
1
0
0
0
0
0
0
0
0
0
0
0
0
0
0
0
0
0
0
0
0
0
0
0
0
0
0
0
0
0
0
0
0
0
0
0
0
0
0
0
0
0
0
0
0
0
0
0
0
0
0
0
0
0
1
0
0
0
1
0
0
0
1
1
1
0
1
0
0
0
0
0
0
0
1
0
0
1
0
0
1
1
1
0
1
1
1
1
1
1
0
1
0
0
1
0
1
1
1
1
1
1
0
0
0
1
1
1
1
1
1
0
1
0
0
0
1
1
1
1
0
1
1
0
1
1
0
1
0
1
1
1
1
1
1
1
1
1
0
0
0
0
1
1
0
0
1
1
1
1
1
1
1
0
1
1
1
1
1
1
0
0
0
0
0
1
1
1
1
0
1
1
1
0
0
1
0
0
0
0
0
0
0
0
0
0
0
0
0
0
1
1
0
0
1
0
1
1
1
1
1
1
1
1
1
1
1
1
1
1
1
0
0
1
0
0
0
0
0
0
0
1
1
0
1
0
1
0
0
1
1
1
1
1
1
0
1
1
1
0
1
0
1
0
0
1
1
1
0
0
1
1
1
1
1
0
1
1
1
1
0
0
0
1
1
0
0
0
0
1
0
0
1
1
1
0
1
1
0
0
1
0
0
1
0
1
0
0
0
0
0
0
0
0
0
1
0
0
1
1
1
1
1
1
1
1
1
1
1
1
1
0
0
0
0
0
0
0
1
0
0
1
1
1
1
1
1
1
1
1
1
1
1
1
1
1
1
1
1
1
1
1
1
1
1
1
1
1
1
1
1
1
1
1
1
1
1
1
1
0
1
1
0
0
0
1
0
0
0
0
1
1
1
1
0
0
0
0
0
0
1
1
0
0
0
0
0
0
0
1
0
1
0
1
0
0
0
        </DataArray>
        <DataArray type="Float64" Name="density" format="ascii">
1000.538883488813
999.3929472787682
1000.538883490421
1000.775130980429
1000.91907231164
1000.919072318547
1000.064306700643
1000.315620247625
999.4945430474695
999.9309372608913
999.3390095688874
1000.098952613976
1001.607356506489
1001.607356513267
1000.430282393984
999.0266655168224
999.9607494572289
1000.651008411967
1001.380744575312
1000.180557666708
999.9834416513323
999.2041743935192
999.2041743925093
1000.46661709518
1000.466617112001
1000.030767388836
1000.250558406086
1000.250558410912
1000
999.0747281712116
999.6468711709998
998.6661053811038
998.6661053750468
1000.165312779964
1000.322026369197
1000.270679663364
1000.100088786235
1000.100088781034
1001.457995821196
1001.841412103756
999.4696836827229
998.6132018116049
998.6132018195375
999.4696836898515
999.386036200367
999.3860361950182
1000.340574593764
1000.34057459963
1000.400793867549
1000.902898897401
1003.293387982672
1000.53165312852
999.4528259697578
999.7642774132984
999.7642773971887
998.7991190426649
1000.02236414134
998.2213136644108
998.2213136725363
1002.154324941107
1002.203215829437
1001.391837593881
1002.717694241082
1000.905273063305
1000.905273058752
1000.383187090206
1000.383187117032
999.4176829136713
1001.981409505985
1001.981409502739
1000
998.5837702808554
998.5837702945694
1000
1000
999.5791396214848
1000.032282133711
999.1666007710752
999.9685384290077
999.392508269867
1000.046114064912
999.8195345861054
997.8834769924828
1000
1000
1000
1000
1000
1000
1000
1000
1000.618999700607
1000
1000
1000
1000
1000
1000
1000.522633455855
1000
1000
1000
1000
1000
1000
1001.186096403249
1000.209565210889
1000
1000
1000
1000
1000
1001.044026993189
1001.215638181128
1000
1000
1000
1000
1000
1000
1000
1000
1001.215638187539
1000
1000
1000
1000.209565215409
1000
1000
1000
1000
1000
1000
1000
1000
1000
1000.579630746302
1000
999.283607396806
999.7275407455191
1000.351742934649
1000.780385531296
1000
1002.66105576651
1001.01411686632
1000.53787369385
999.4997616237055
999.8250793575061
999.8708184334903
1000
1000.047761698821
1000.351742942625
1000
1000.861902721529
1000.485339789751
1000.047761702722
998.7712131031411
999.7275407487228
1000
1001.162340144063
998.7351992252106
1000
1000
1000
1000
999.0606077276758
999.9166341286834
998.7712131088853
1000.537873690633
1000
1000.338767743444
1000
999.9634470209813
999.4352333141275
1000.422080424752
1001.014116856829
1000.959783209006
998.0398914233222
999.5409588279831
1000.626175241595
998.0690642775189
999.9022260101266
1000.896385318952
999.37821489355
1000.257097646932
1000
1000.377852025551
1000
1000.324039510022
1000.45565183063
1000
999.8772787193169
1000.964144375053
1000.43463623361
1000.896385274273
1000.434636236302
1000.9641443807
1002.177346717312
1000.455651854954
1001.894581165586
1001.509349204554
1001.509349202239
999.5879679488114
998.5870836360086
1001.148167058667
999.3191879599301
1000.132017564166
997.4009921759766
1000.146079753843
1002.785168457969
1000.163793346012
999.8250793936503
1000
998.6763741695363
999.178029687078
999.3074351897939
999.4396210045684
1000.035895562222
1000.035895551367
999.4396210008538
999.8526194302787
999.4176829055282
1000.019011308126
1000.485339779204
999.2836073824978
1000.579630751693
999.3854582269557
999.0443406027874
999.6110869792591
999.587389704552
999.6110869870164
1001.148167054381
1000
1000
1000.632353324348
999.4036235468656
1000
999.1780296873583
1000.16379335011
1002.785168460974
1001.095914774863
1000
1000
1000.132017562305
999.4352333105791
1000
999.8772787228303
999.6936007168969
1001.435157828196
1000.055838123965
1000
1000
1000
1000
1000
1000.302118846489
1000.685414500069
1000
1001.747573026584
1000
999.4448705760881
1001.165484389875
998.6729582250077
1000
1000.998407197523
1001.715354697932
1000.726204159411
998.8599465205265
999.3390095666439
1001.894581164562
1001.878452728725
999.4036235534301
999.7029139500027
1000.685414511979
1000.065177150501
1000.961716442359
1000
1000.065177153596
999.9365429812625
1001.878452738549
1000.256320139877
1000.572570958963
1000.726204163195
1001.747573018813
1000
1000.180557683885
1000.338767734574
1001.305893338501
1001.458190761733
1001.704086531681
999.9834416596449
1000.348882248574
1000.318330929902
999.0378823809058
1000.430571102765
997.8742935091522
999.4945430467426
999.3877177151386
1000
1000
1000.213987744887
999.0576345920538
999.3842428591686
1000.030767404511
1000
1002.032243925626
999.9799455786235
1001.074022434601
999.3482944640314
998.3768932346976
1000.630856889413
998.600481469908
1000.918066435937
999.043072354899
999.8837046523208
1000.006243641491
998.3179336913068
1002.578488176611
1000.918066439991
1000.061137311733
1000.078889083776
1000.09815065962
1003.293387962949
1000.322026357431
998.3179337003985
998.600481490392
999.9744586750043
999.1641821887978
1000.006243637787
1000.630856893969
1000.213987739202
1000
1000.146079751993
1000
1001.247977149622
999.936542988036
1000.219510585083
1000
1000.324039518115
1001.457995810526
999.1650971194873
1001.022189620559
1000.383909672926
1002.032243942468
999.9472946023116
1000.058723262275
1000.257097646781
1002.154324944935
999.2747333414302
999.8357419325623
998.7217335868106
999.2653586429209
1000
999.0378823708629
1000.058723264629
999.4997616469865
999.0471462625288
998.8410132846059
999.0606077571903
1000.094586185869
999.8357419428514
999.9902274975287
1000.300933272383
999.0471462697062
999.2747333579312
999.1650971328113
999.9536670724038
999.9902274986322
1000
999.0576346087096
999.0266655076936
1000.061137345631
999.3929472719249
999.9472946095214
1000.493030581861
999.818906907006
1001.24797713027
999.4448705910357
1000.572570942321
998.0690642700581
1001.391837608654
1000.302118861474
1002.203215815492
1000.430571098428
999.378214878971
1000.959783206313
1001.008678696072
1000
1000
1000
1000
1000.38390967364
1000
1000
1000
999.4885240046943
1000
1000.597684139323
1000.829337225613
1000.422080416402
1001.435157816097
1001.806063573651
1000.256320129591
1000.53165316478
1000.219510606157
998.9887216982751
999.3877177147241
999.5275606302268
999.3482944650711
1000.032282155621
999.9607494405014
1001.074022456037
999.3925082480968
1001.704086529624
999.6936007338943
1000.820947640061
999.8837046444331
1000
997.63256515799
1000
1001.956553085365
1000.315620245555
999.1789147743872
1000
999.3724984761465
1000.567090737595
1000.54227838681
999.9321365262788
1000
1000
1000
1000
1000
1000
1000.289401256419
1000
1000
1000.861902727917
1000.055838138219
1000
1000
1000.895376054173
1000
1000.019011329446
1001.09591480117
1000
1000
999.8330782784129
1000
999.9309372583723
1000.000169582229
999.8195345980027
999.3074352038319
1001.956553071037
1000.632353329337
1000
1000
1000
1000
1001.1623401398
1000.464499292248
1001.806063576004
999.1364331029583
1000.600108369189
1000.270679661412
1000.40079385339
1002.177346713009
1000.873896389092
1000
1001.268156453557
999.5791396026655
999.9685384120423
999.1666007610402
1001.841412091048
998.0398913876127
1000
1000.43028238922
1000
1000.820947639597
1000
999.8712530716418
999.8712530740453
1000.064306711399
998.6729582396027
1001.165484405313
1001.715354693647
1000.065934054498
1000.873896397565
1000.902898879964
1001.268156448623
999.0747281608139
1000.377852025376
997.8834769858222
1000.09895262098
1000.065934052204
999.3724984716274
1000.318330931631
1000.895376054859
1000.998407204178
999.1789147617718
999.5275606056383
1000.464499290141
1000.046114083475
999.5879679415194
998.9887217019354
1000
1000
1000.113198762222
1000.431800713968
1000.469109785961
1001.316799594233
1001.301526754802
1000.980734688163
1002.11598079253
1000.344381325264
1001.841412107928
1000.939586220833
1000.145742557482
1000.180557665875
1001.122167950979
1000
1000.030929839703
1000
1000
1000.039784947503
1000.564283795581
1000.885248426342
1000.595138293378
1000.961000246404
1001.266379928056
1000.651008405727
1000
998.9175111333437
1000.344381325788
998.6558996713112
1001.533417742816
998.6558996838813
999.9834416356965
997.8742935101088
999.3842428466157
1000.939586189544
998.9175111378502
1002.115980798488
997.8742935061121
999.4885239979919
1001.533417726548
1000.939586223643
1000
1002.115980823047
1000.34438133373
999.3842428534581
999.8920326655461
1000.564283773722
999.2227809752934
1000.113140297091
1000.110587545697
999.576434409991
1000.030767395955
1000.230688108911
999.2553094482467
1001.266379913143
1000
1000.961000217528
999.3074351742667
998.0992332545114
999.2653586417027
1000.885248419883
999.779273446287
999.7792734133403
999.0747281777292
1000
1000
998.8972104387959
999.2396250162402
1000.125625948859
1000.868212863833
1001.316799593137
1000
1000
999.7029139551449
1000.030929839292
1000
1000.469109782466
1001.604180567561
1000.202073111689
999.4554853374185
999.1204634825427
1000.466617105771
1000.336177139982
1000
1000
1000
1000.389342190277
1000
1000
1000.040252799244
1000
1000
1000
1000.308710077042
1000
1000.002719022504
1000
1000.478118486757
1000.5284493135
1000.048475208375
1000
1001.301526754068
1000.980734697069
1000.389342198886
1000
1000
1000.040252804319
1000
1000.113198766532
1000.431800721039
1000.336177141734
1000
1000
1000
1000.000571262711
1000
1000
1000
1000
1000
1000.308710076332
1000.229386218814
1000.776644000306
999.4539118392405
1000.212529896384
1000.78416543909
1000.039784927658
999.4724005530783
999.5791396418924
1001.162340117508
999.2389096794873
999.1634335773144
1000.861902731101
1000.145742558311
1000.559478987031
999.647689755914
1000.441138805928
999.4945430444467
999.2741999442291
1001.61820427036
999.9309372515642
998.3768932368497
1001.671280597217
1000.538883517545
1000.000169589711
1000.482671356303
999.4885240101294
1000.775131013405
1000
1000.798809214288
1000.482671352964
1001.671280603514
999.7703725903913
1000.585056287824
1000.230688074768
998.537611447723
999.770372582621
999.2553094358749
1000.103839055734
1000.650178261953
998.5093359931376
999.4539118105142
999.1641822023488
998.5837702994852
998.4663152132973
1000.430282380745
999.2598171328874
999.1724057549088
1000.600108376549
1000.0643066964
998.7186649347168
999.1724057227333
999.6522007037292
998.8460793754291
1000.977775735741
998.8599465444559
998.872683494523
1000.103839033839
1000.977775717949
998.7433912815018
999.382102417637
1000.517339812753
1000.517339826019
1000.624616555745
998.8121571065723
1001.276651378327
1001.276651389683
1001.276651393903
1001.883125602611
999.0747281714026
1004.754900056813
1001.217922545352
999.3854582083947
1001.489443412868
1000.657166115647
1000.657166134753
998.8753521345888
1000
1001.489443440081
998.8753521569178
999.256312004722
1000.351620920293
1000.226246964393
1000.226246994302
1000.558092944514
1000.558092931279
1000.739384445463
1000
999.404520330804
999.4045203616294
1002.332963139382
1002.332963156103
1002.332963138113
1001.116772041408
1001.116772064858
1001.116772051719
1000.695502002976
1000.843993663452
999.3390095670426
1000.382840613109
1000.38284064178
998.7731549994055
998.7731550040879
1000.097063436602
1000.097063455808
997.587843815797
999.7939392142556
999.7939391823942
1002.5495302441
1000.226114832577
1000.226114805229
1003.433638252451
1000.76763179842
1000.767631789109
1000.767631794845
1000.327778895548
998.4342456321685
998.4342456278833
998.793796640919
999.5470058568638
999.547005829754
999.5470058343915
998.924642101063
998.9246420969788
1002.590111370944
1002.59011136049
1002.590111357387
999.7133593971089
999.7133593728975
1001.492830818073
1001.492830792025
1000.804417254282
1002.401933776924
1002.401933801163
1002.401933787053
1000.199949300603
1000.199949293859
1003.673437037971
1003.673437035594
1003.67343702957
998.3554567535407
998.3554567683232
1000.14145094472
1000.141450933963
999.9394605966332
999.5866756526461
999.9394605995202
999.5866756448218
999.5866756458183
1000.64723235855
1000.647232352913
1002.191353115349
1002.191353117433
999.5108463985659
999.5108463894912
1000.082467706611
1000.082467704044
1000.568411376658
1000.568411399021
999.9056154350751
999.3473477951301
999.3473478314871
1001.363886215307
1001.363886202617
1000.148746616811
1000.148746616584
1000.194909541326
1001.090994140747
1001.090994193353
1000.709451347305
1000.709451357147
1000.24714386965
1000.247143869249
997.616896076127
1001.18157409281
1001.18157406553
1001.851272668359
1001.851272661528
1001.851272655448
1001.576713590198
1001.576713590491
1001.576713583615
1001.063931353758
1001.063931315636
1002.163847656547
998.6782509929587
998.6782509666899
1002.414551601563
1000.01278007308
1000.012780065004
1002.211812086174
1000.797741029368
1000.797741018743
1000.797741019309
1000.396352009554
1002.025428759356
1000.396351987681
1002.02542876606
1002.025428742798
997.2624763906181
997.2624763688154
1002.198985751194
1002.198985772485
998.5623224900363
998.562322494657
998.5623224811093
1000.837437052924
1000.837437037768
1000.881081005972
1000.881080988455
1000.359294645003
1000.359294638762
1003.342824785693
999.3789654833131
999.3789654639277
1000.482671340855
1000.798809218549
1000.098952610137
1001.618204235079
1000.964144387659
1001.063931311049
999.9685384458461
1000.270679653588
998.5093360042891
998.4663151904833
998.718664924775
999.1724057706892
1000.650178240172
998.8726834778112
999.6522006954519
998.8460793842863
1000.776644011948
1000.097063440884
999.2598171206629
999.4539118161134
1000.064306702898
1000.270679644064
1000.709451358935
1000
1000.784165422706
999.4724005647078
999.6468711628232
999.2389096936747