<VTKFile type="PolyData" version="1.0" byte_order="LittleEndian" header_type="UInt64">
  <PolyData>
    <Piece NumberOfPoints="3365" NumberOfVerts="3365">
      <Points>
        <DataArray type="Float64" Name="Points" NumberOfComponents="3" format="ascii">
0.1433215015241802 0.1521124397558933 0.05502444105458407
0.1521124397592911 0.1433215015279475 0.05502444105385772
0.1347315352997133 0.1523757718469586 0.04457227845981814
0.1523757718439286 0.1347315352972584 0.04457227845942255
0.1264112146762838 0.1533233016985991 0.03659654718225702
0.1533233016956319 0.1264112146698738 0.03659654719457995
0.1156704034247084 0.1534569151596298 0.03156019622923023
0.08889069176351737 0.1141031648376255 0.02958032666337996
0.10693521640434 0.1529928147192861 0.02665609611264742
0.1297387673406565 0.121012912498725 0.001978966861284886
0.1138077764127534 0.1053985284257917 0.05147549757078525
0.09947131740806725 0.152374417542845 0.0244360200847856
0.0901075381942216 0.1505321922864982 0.02150700540328725
0.1139458030512471 0.1316611695970126 0.02595395441316029
0.1292222338398688 0.1425194036374401 0.01841850953680745
0.14251940365835 0.129222233905226 0.0184185095282644
0.1259157435739559 0.1396763896606406 0.01047332590633938
0.1053985284247485 0.1138077764122362 0.05147549757113565
0.1151973709052354 0.1404442163033094 0.01075428844418844
0.1466823919893791 0.1257781815114519 0.02890617075269378
0.1257781815139312 0.1466823919877454 0.02890617073632054
0.09624912222944153 0.1401081946456277 0.002064026875415113
0.1497724151999541 0.1497724152336903 0.02820196832662526
0.08931670129837141 0.1059278613240047 0.02537363537132229
0.10496769240957 0.1395423258265246 0.001105418461409847
0.09703863249841441 0.1143987608905385 0.04999585093786039
0.0806832987004127 0.105927861326626 0.02537363537269565
0.1057595320631523 0.1057595320653955 0.04814901008767905
0.1070234098763652 0.143874708885945 0.04180747954362092
0.09692451112146705 0.1059218525235014 0.04634458655784255
0.0721159604141559 0.1441790849748634 0.04061595331952886
0.09788403958129431 0.1441790849769165 0.04061595331649368
0.1057960639041327 0.131165423983942 0.02211163833188943
0.1236452112884073 0.1054930100634454 0.05283494151856688
0.122732619703712 0.1128902071030574 0.05389537026523784
0.089286817550664 0.144094783696247 0.03925564616711792
0.08071318245204602 0.1440947837011688 0.03925564616937829
0.1321320927595992 0.1146409184279427 0.05940283443951277
0.1382678294591592 0.1238504115457556 0.01692052862632306
0.09787086310592318 0.1312047432195692 0.02038529117009324
0.07212913688509769 0.1312047432224402 0.02038529117121589
0.08926518963479699 0.1308338297737248 0.01934269019916314
0.1324814423915013 0.1059133837921143 0.05669100708155472
0.08073481036346146 0.1308338297762202 0.01934269019978103
0.08913867348117807 0.1132342370076751 0.01961178838336565
0.09002650842040065 0.1062776772634424 0.01492877934610515
0.1131779071455222 0.1131779071432017 0.04546822332550787
0.1133303402213138 0.1056404574449602 0.04239320195594672
0.1056404574444301 0.1133303402201333 0.04239320195535227
0.09643461621294502 0.1137718166215787 0.04094846284979859
0.1535278299216952 0.1262517709467217 0.02514335168167197
0.1061002934669193 0.1061002934679458 0.03876211362145513
0.09619025056466612 0.1060780623064361 0.03658245314713126
0.1349625712302322 0.1522287837344438 0.05325007452699561
0.1522287837364827 0.1349625712362725 0.05325007452547238
0.1262097063996901 0.152256411776454 0.04653832604059991
0.1522564117732458 0.12620970640509 0.04653832602697241
0.1165273512102719 0.152597585008615 0.04141165813469812
0.1071300089585202 0.1530178436077369 0.03760187145572767
0.1427774741506918 0.1156910753267691 0.06830158117828293
0.09845155002198026 0.1525020665481838 0.03517860765919157
0.08966132630070729 0.151534348563674 0.03241337237872419
0.1231863158420162 0.1133085287487145 0.04518934437064383
0.1238784853736053 0.1059533445786254 0.04245906648884112
0.0808613265175708 0.1132342370069677 0.01961178838943885
0.1323281702498783 0.114358080183364 0.05105787058404537
0.1327363344660957 0.1063896053780201 0.04847241618091953
0.08842502014999584 0.1126897200134136 0.008130028907398602
0.1131606493651137 0.1131606493643424 0.03600957949812476
0.07997349157655743 0.1062776772621125 0.0149287793469788
0.0897367529309243 0.1056332966023883 0.002132717551827106
0.1107150306062216 0.1206710613837864 0.008135685480411332
0.1396763897255208 0.1259157436575153 0.01047332601949373
0.113401502065862 0.1134015020653756 0.05448826732952553
0.1233198657476657 0.1233198657514197 0.03525858538662088
0.123694116347452 0.09720501527234356 0.05867994793515227
0.1239653178084833 0.08913499337749843 0.05882309079034617
0.1058523973527926 0.1212880831638877 0.004307042307376907
0.1132569516688825 0.1056767783587253 0.03194228745851464
0.1056767783594071 0.1132569516709467 0.03194228745651
0.1390897780099475 0.1315740026942669 0.004266859936742742
0.1437491096627908 0.1437491092319549 0.01405431815550908
0.09706566652763683 0.1138077050699029 0.03043886852112184
0.09597535753865027 0.1207253620263024 0.002209315899765559
0.08057509288188561 0.1205683382884048 0.001161547541637176
0.1500702738785895 0.1416647407245431 0.01759295817522072
0.1315740025887196 0.1390897779006195 0.004266859728970432
0.1416647407077925 0.1500702738887366 0.01759295818314278
0.1520854890676903 0.1520854890825965 0.0439404950519617
0.08942490711808358 0.1205683382884677 0.001161547545376435
0.1527024166710138 0.1527024167225144 0.03339781572481604
0.1394865051716055 0.1441588170584712 0.0111568261850749
0.1061958730234772 0.1061958730238166 0.0279787940794818
0.09644080907454712 0.1058815677628431 0.02614505238302536
0.1441588168874232 0.1394865051760039 0.01115682605046725
0.1170569900750626 0.1524832331337443 0.05876562311341249
0.114103164837738 0.08889069176630285 0.029580326662796
0.08941637881452287 0.08941637881492025 0.0428159130241457
0.1145498203589457 0.08899742811769454 0.0494466841072309
0.1131779932001963 0.129540379340661 0.01673668354673187
0.1244320474077265 0.08955532473298805 0.05106310975713695
0.09653797352029286 0.08965433796320912 0.03376140957700583
0.1063766686469296 0.08932413788865307 0.04599919984836493
0.1049826644629462 0.1291170515546499 0.01232594728095476
0.1427071133256398 0.08954445808270693 0.0715467652920673
0.1429267993925398 0.08963657932477101 0.06396226007304617
0.115479385298774 0.1438232725254665 0.03750579579751163
0.1242333257085428 0.08921375179831434 0.03989356535443874
0.1137632841206079 0.08926021580185395 0.04019883397402312
0.09770051885379862 0.130015005477843 0.009833276255074104
0.07229948114176804 0.1300150054751417 0.009833276256002027
0.08951842105263157 0.1618131578947369 0.1042884615384616
0.09855526315789473 0.1618131578947369 0.1042884615384616
0.09740302072254756 0.08935593001787677 0.04361282205949479
0.08958755616894754 0.0895875561697141 0.03319092455109358
0.1066909913781254 0.08979686828031697 0.03603440590216104
0.08068096954749143 0.1297786407787371 0.007970592853203815
0.08931903045323988 0.1297786407861813 0.007970592856870285
0.1328172262859207 0.08933975241853612 0.05507776468560432
0.1329669858970197 0.08928309051722279 0.0464876727872168
0.0964424390953065 0.09644243909575238 0.02339712282837912
0.08951842105263157 0.1618131578947369 0.007911538461538463
0.09855526315789473 0.1618131578947369 0.007911538461538463
0.1075921052631579 0.1618131578947369 0.007911538461538463
0.116628947368421 0.1618131578947369 0.007911538461538463
0.1256657894736842 0.1618131578947369 0.007911538461538463
0.1347026315789474 0.1618131578947369 0.007911538461538463
0.1437394736842105 0.1618131578947369 0.007911538461538463
0.1059278613249539 0.08931670129939061 0.02537363537143082
0.1527763157894737 0.1618131578947369 0.007911538461538463
0.09671840559716505 0.08907934477297481 0.02214318256632915
0.0890793447732299 0.09671840559873739 0.02214318256773269
0.1315040847993845 0.1228740971487315 0.0383681672959105
0.1228740971435531 0.1315040847969762 0.03836816730219517
0.107541365435943 0.1525228339887059 0.05575437560285877
0.08989910371426471 0.08989910371389864 0.02120087867611136
0.1230154041187757 0.1127596963998583 0.03641523388502301
0.1238157474402507 0.1059025536387069 0.03431950856508036
0.1248804339610473 0.08938226836947662 0.03211692583857454
0.1245096700334658 0.09645471759827855 0.03222213889022111
0.1519846739202562 0.09865180568946427 0.07984404789828002
0.107251231663422 0.1434074914373186 0.03474892053220096
0.1518911708212741 0.08948383492853872 0.07890979685480963
0.1430520188414356 0.115792963121557 0.06016899078147856
0.07250704220797101 0.1448801236495743 0.03354083902452968
0.09749295779154127 0.1448801236542955 0.03354083902512559
0.08914675605265304 0.1441995786689728 0.03190476894317321
0.08085324394723759 0.1441995786818451 0.03190476894830645
0.09843239020199342 0.1521381681297504 0.05397731416729992
0.07156760979357568 0.1521381681267804 0.05397731416904163
0.1323966568969551 0.1142853032262674 0.04228437820720643
0.1124664829694669 0.1124664829702741 0.02678253934880591
0.1327474530046782 0.1062031730811027 0.03967277014991207
0.1431720916394 0.1073915239891723 0.05759506125874937
0.1325830308677855 0.08931609861299426 0.03737974174887423
0.1327067725135907 0.09771351800608109 0.03809620571999257
0.1435053296466099 0.09833527711090385 0.05659870465156137
0.08946420603420767 0.1514417116078337 0.05267895297293998
0.1120973551953069 0.1052149606011398 0.02285553427922985
0.1052149605976861 0.1120973551990937 0.02285553427914321
0.09663514249998045 0.1128898389670373 0.02049009403481307
0.1128898389615623 0.09663514250051472 0.02049009403726305
0.1435460208437654 0.08947487316491694 0.05589779681577357
0.08053579396162597 0.1514417116057557 0.05267895297263021
0.1132342370066916 0.08913867347892054 0.01961178838563911
0.1065989715979557 0.1065989715996759 0.01863797278581188
0.09601796466989132 0.1060766382851674 0.01572373746221496
[...]
      <PointData>
        <DataArray type="UInt64" Name="type" format="ascii">
1
1
1
1
1
1
1
1
1
1
1
1
1
1
1
1
1
1
1
1
1
1
1
1
1
1
1
1
1
1
1
1
1
1
1
1
1
1
1
1
1
1
1
1
1
1
1
1
1
1
1
1
1
1
1
1
1
1
1
1
1
1
1
1
1
1
1
1
1
1
1
1
1
1
1
1
1
1
1
1
1
1
1
1
1
1
1
1
1
1
1
1
1
1
1
1
1
1
1
1
1
1
1
1
1
1
1
1
1
1
1
0
0
1
1
1
1
1
1
1
1
0
0
0
0
0
0
0
1
0
1
1
1
1
1
1
1
1
1
1
1
1
1
1
1
1
1
1
1
1
1
1
1
1
1
1
1
1
1
1
1
1
1
1
1
1
1
1
1
1
1
1
1
1
1
1
1
1
1
1
1
1
1
1
1
1
1
1
1
1
1
1
0
0
0
0
0
0
1
1
1
0
0
0
0
0
0
1
1
0
0
0
0
0
0
0
0
0
0
1
1
1
0
0
0
0
0
1
1
1
1
0
0
0
0
0
1
1
1
1
1
0
1
0
0
0
0
0
0
0
1
1
0
0
0
0
1
1
1
0
0
0
0
0
0
0
0
0
0
1
1
1
1
1
1
1
1
1
1
1
1
0
0
0
0
0
0
0
0
0
0
0
0
0
0
0
0
0
0
0
0
0
0
0
0
0
0
0
0
0
0
0
0
0
0
0
0
0
0
0
0
0
0
0
0
0
0
0
0
0
0
1
0
0
1
1
1
1
1
1
1
1
1
1
1
1
1
1
1
1
1
1
1
1
1
1
1
1
1
1
1
1
1
1
1
1
1
1
1
1
1
1
1
1
1
1
1
1
1
1
1
1
1
1
1
1
1
1
1
1
1
1
1
1
1
1
1
1
1
1
0
1
0
1
0
0
0
1
1
1
0
0
0
0
0
0
0
1
1
1
1
1
1
1
1
1
1
1
1
1
1
1
1
1
1
1
1
1
1
1
1
1
1
1
1
1
1
1
1
1
1
1
1
1
1
1
1
1
1
1
1
1
1
1
1
1
1
1
1
1
1
1
1
1
1
1
1
1
1
1
1
0
0
1
0
0
0
0
0
0
0
0
0
0
0
0
0
0
0
0
0
0
0
0
0
0
0
0
0
0
0
0
0
0
0
0
1
0
0
0
1
1
1
1
1
1
1
1
1
0
0
0
0
1
1
1
1
1
1
1
1
1
1
0
0
1
1
1
1
0
0
1
1
1
1
0
0
1
1
1
1
1
1
0
1
1
1
1
1
1
1
1
1
1
1
1
1
1
1
1
1
1
1
1
1
1
1
1
1
1
1
1
1
1
0
1
1
1
1
1
1
1
1
1
1
1
1
1
1
1
0
1
1
1
1
1
1
1
1
1
1
1
1
0
1
1
1
1
1
1
1
1
1
1
1
1
1
1
1
1
1
1
1
1
1
1
1
1
1
1
1
1
1
1
1
1
1
1
1
1
1
1
1
1
1
1
1
1
1
1
1
1
1
1
1
1
1
1
1
1
1
1
1
1
1
1
1
1
1
1
1
1
1
1
1
1
1
1
1
1
1
1
1
1
1
1
1
1
1
1
1
1
1
1
1
1
1
1
1
1
1
1
1
1
1
1
1
1
1
1
1
1
1
1
1
1
1
1
1
1
1
1
1
1
1
1
1
1
1
1
1
1
1
1
1
1
1
1
1
1
1
1
1
1
1
1
1
1
1
1
1
1
1
1
1
1
1
1
1
1
1
1
1
1
1
1
1
1
1
1
1
1
1
1
1
1
1
1
0
0
0
0
0
0
0
1
1
1
1
1
1
1
1
1
1
1
1
1
1
1
1
1
1
1
1
1
0
0
0
0
0
0
0
1
1
1
1
1
1
1
1
1
1
1
1
1
1
1
1
1
1
1
1
1
1
1
1
1
1
1
1
1
1
1
1
1
1
1
1
1
1
1
1
1
1
1
1
1
1
1
1
1
1
1
1
1
1
1
1
1
1
1
1
1
1
1
1
1
1
1
1
1
1
1
1
1
1
1
1
1
1
1
1
1
1
1
1
1
1
1
1
1
1
1
1
1
1
1
1
1
1
1
1
1
1
1
1
1
1
1
1
1
1
1
1
1
1
1
1
1
1
1
1
1
1
1
1
1
1
1
1
1
1
1
1
1
0
0
0
0
0
0
0
0
0
0
0
0
1
0
0
0
0
0
0
0
0
0
0
0
0
0
0
0
0
0
0
0
0
0
0
0
0
0
1
0
0
0
0
0
0
0
1
1
1
1
1
1
1
1
1
0
0
0
0
0
0
0
1
0
0
0
0
0
0
0
1
0
0
0
0
0
0
0
0
0
0
0
0
0
0
1
0
0
0
0
0
0
0
1
0
0
0
0
0
0
0
0
0
0
0
0
0
0
1
0
0
0
0
0
0
0
1
1
1
1
0
0
0
0
1
1
1
0
0
0
0
1
1
1
1
1
1
1
1
1
1
1
1
1
1
1
1
1
1
1
1
1
1
1
1
1
1
1
1
1
0
0
0
0
0
0
0
1
1
1
1
1
1
1
1
1
1
1
1
1
1
1
1
1
1
1
1
1
1
1
1
1
1
1
1
1
1
1
1
1
1
1
1
1
1
1
1
1
1
1
1
1
1
1
1
1
1
1
1
1
1
1
1
1
1
1
1
1
1
1
1
1
1
1
1
1
1
1
1
1
1
1
1
1
1
1
1
1
1
1
1
1
1
1
1
1
1
1
1
1
1
1
1
1
1
1
1
1
1
1
1
1
1
1
1
1
1
1
1
1
1
1
1
1
1
1
1
1
1
1
1
0
0
0
0
0
0
0
0
0
1
0
0
0
0
0
1
1
0
0
0
0
0
1
1
0
0
0
0
0
1
0
0
0
0
0
0
0
0
0
1
1
1
1
1
1
1
1
1
1
1
1
1
1
1
1
1
1
1
1
1
1
1
1
1
1
1
1
1
1
1
1
1
1
1
1
1
1
1
1
1
1
1
1
1
1
1
1
1
1
1
1
0
0
0
0
0
0
1
1
1
1
1
1
1
1
1
1
1
1
1
1
1
1
1
1
1
1
1
1
0
0
0
0
0
0
0
0
0
0
0
0
1
1
1
1
1
1
1
1
1
1
1
1
1
1
1
1
1
1
1
1
1
1
1
1
1
1
1
1
1
1
1
1
1
1
1
0
0
0
0
0
0
0
1
1
1
1
1
1
1
1
1
1
1
1
1
1
1
1
1
1
1
1
1
1
1
1
1
1
1
1
1
1
1
1
1
1
1
1
1
1
1
1
1
1
1
1
1
1
1
1
1
1
1
1
1
1
1
1
1
1
1
1
1
1
1
1
1
1
1
1
1
1
1
1
1
1
1
1
1
1
1
1
1
1
1
1
1
1
1
1
1
1
1
1
1
1
1
1
1
1
1
1
1
1
1
1
1
1
1
1
1
1
1
1
1
1
1
1
1
1
1
1
1
1
1
1
1
1
1
1
1
1
1
1
1
1
1
1
1
1
1
1
1
1
1
1
1
1
1
1
1
1
1
1
1
1
1
1
1
1
1
1
1
1
1
1
1
1
1
1
1
1
1
1
1
1
1
1
1
1
1
1
1
1
1
1
1
1
1
1
1
1
1
1
1
1
1
1
1
1
1
1
1
1
1
1
1
1
1
1
1
1
1
1
1
1
1
1
1
1
1
1
1
1
1
1
1
1
1
1
1
1
1
1
1
1
1
1
1
1
1
1
1
1
1
1
1
1
1
1
1
1
1
1
1
1
1
1
1
1
1
1
1
1
1
1
1
1
1
1
1
1
1
1
1
1
1
1
1
1
1
1
1
1
1
1
1
1
1
1
1
1
1
1
1
1
1
1
1
1
1
1
1
1
1
1
1
1
1
1
1
1
1
1
1
1
1
1
1
1
1
1
1
1
1
1
1
1
1
1
1
1
1
1
1
1
1
1
1
1
1
1
1
1
1
1
1
1
1
1
1
1
1
1
1
1
1
1
1
1
1
1
1
1
1
0
0
0
0
0
0
0
0
0
0
0
1
1
1
1
1
1
1
1
1
1
1
1
1
1
1
1
1
1
1
1
1
1
1
1
1
1
1
1
1
1
1
1
1
1
1
1
1
1
1
1
1
1
1
1
1
1
0
1
1
1
1
1
1
1
1
1
1
1
1
1
1
1
1
1
1
1
1
1
1
1
1
1
1
1
1
1
1
1
1
1
1
1
1
1
0
0
0
0
1
0
0
1
0
1
1
1
1
1
1
1
1
1
1
1
1
1
1
1
1
1
1
1
1
1
1
1
0
1
1
1
1
1
1
1
1
0
1
1
1
1
1
1
0
1
1
1
1
1
1
1
1
1
1
1
0
0
0
0
0
0
0
0
1
0
0
0
0
1
1
1
1
1
1
1
1
1
1
1
1
1
1
1
1
1
1
1
1
1
0
0
0
0
0
0
0
0
0
0
0
0
0
0
0
0
0
0
0
0
0
0
0
0
0
0
0
0
0
0
0
0
0
0
0
0
0
0
0
0
0
0
0
0
0
0
0
1
1
1
1
1
1
1
1
1
1
1
1
1
1
1
1
1
1
1
1
1
1
1
1
1
1
1
1
1
1
1
1
1
1
1
1
1
1
1
1
1
1
1
1
1
1
1
1
1
1
1
1
1
1
1
1
1
1
1
1
1
1
1
1
1
1
1
1
1
1
1
1
1
1
1
1
1
1
1
1
1
1
1
1
1
1
1
1
1
1
1
1
1
1
1
1
1
1
1
1
1
1
1
1
1
1
1
1
1
1
1
1
1
1
1
1
1
1
1
1
1
1
1
1
1
1
1
1
1
1
1
1
1
1
1
1
1
1
1
1
1
1
1
1
1
1
1
1
0
0
0
0
0
0
0
0
0
1
1
1
1
1
1
1
1
1
1
1
1
0
1
1
1
0
0
1
1
1
1
1
1
1
1
1
1
1
1
1
1
1
1
1
1
1
1
1
1
1
1
1
1
1
1
1
1
1
1
1
1
1
1
1
1
1
1
1
1
1
1
1
1
1
1
1
1
1
1
1
1
1
1
1
1
1
1
1
1
1
1
1
1
1
1
1
1
1
1
1
1
1
1
1
1
1
1
1
1
1
1
1
1
1
1
1
1
1
1
1
1
1
1
1
1
1
1
1
1
1
1
1
1
1
1
1
1
1
1
1
1
1
1
1
1
1
1
1
1
1
1
1
1
1
1
1
1
1
1
1
1
1
1
1
1
1
1
1
1
1
1
1
1
1
1
1
1
1
1
1
1
1
1
1
1
1
1
1
1
1
1
1
1
1
1
1
1
1
1
1
1
1
1
1
1
1
1
1
1
1
1
1
1
1
1
1
1
1
1
1
1
1
1
1
1
1
1
1
1
1
1
1
1
1
1
1
1
1
1
1
1
1
1
1
1
1
1
1
1
1
1
1
1
1
1
1
1
1
1
1
1
1
1
1
1
1
1
1
1
1
1
1
1
1
1
1
1
1
1
1
1
1
1
1
1
1
1
1
1
1
1
1
1
1
1
1
1
1
1
1
1
1
1
1
1
1
1
1
1
1
1
1
1
1
1
1
1
1
1
1
1
1
1
1
1
1
1
1
1
1
1
1
1
1
0
0
1
1
0
0
0
1
1
1
1
1
1
1
1
1
0
1
1
0
1
1
1
1
1
1
1
0
0
0
0
0
0
0
0
0
0
0
0
0
0
0
0
1
1
1
1
1
1
1
1
1
1
1
1
1
1
1
1
1
1
1
1
1
0
0
0
0
0
0
0
0
1
1
1
1
1
1
1
1
1
1
1
1
1
1
1
1
1
1
1
1
1
1
1
1
1
1
1
1
1
1
1
1
1
1
1
0
0
0
0
1
1
1
0
1
1
1
1
1
1
1
1
1
1
1
1
1
1
1
1
1
1
1
1
1
1
1
1
1
1
1
1
1
1
1
1
1
1
1
1
1
1
1
1
1
1
1
1
1
1
1
1
1
1
1
1
1
1
1
1
1
1
1
1
1
1
1
1
1
1
1
1
1
1
1
1
1
1
1
1
1
1
1
1
1
1
1
1
1
1
1
1
1
1
0
0
0
0
0
0
1
0
0
1
0
0
0
0
0
0
0
0
0
0
0
0
0
1
1
1
1
1
1
1
1
1
1
1
1
1
1
1
1
1
1
1
1
1
1
1
1
1
1
1
1
1
1
1
1
1
1
1
1
1
1
1
1
1
1
1
1
1
1
1
1
1
1
1
1
1
1
1
1
1
1
1
1
1
1
1
1
1
1
1
1
1
1
1
1
1
1
1
1
1
1
1
1
1
1
1
1
1
1
1
1
1
1
1
1
1
1
1
1
1
1
1
1
1
1
1
1
1
1
1
1
1
1
1
1
1
1
1
1
1
1
0
0
0
0
0
0
1
1
1
1
1
1
1
1
1
1
1
1
1
1
1
1
1
1
1
1
1
1
1
1
1
1
1
1
1
1
1
1
1
1
1
1
1
1
1
1
1
1
1
1
1
1
1
1
1
1
1
1
1
1
1
1
1
1
1
1
1
1
1
1
1
1
1
1
1
1
1
1
1
1
1
1
1
1
1
1
1
1
1
1
1
1
1
1
1
1
1
1
1
1
1
1
1
1
1
0
0
1
0
1
0
0
0
0
0
1
1
0
0
0
0
0
0
0
0
0
0
0
0
0
0
0
0
0
0
0
0
0
0
0
1
0
0
0
0
0
0
0
1
0
0
1
1
0
0
0
1
0
1
0
1
1
1
1
0
1
0
0
1
1
1
0
0
0
1
1
1
0
0
1
1
1
0
0
1
0
0
0
1
1
0
1
1
1
1
1
1
0
0
1
1
0
1
1
1
1
1
1
1
1
0
1
1
0
1
1
1
1
1
1
1
1
1
1
0
0
0
1
0
0
0
1
1
1
0
0
0
0
1
0
0
0
0
1
0
1
1
1
1
1
1
1
1
0
1
1
0
1
1
1
0
0
0
0
0
0
0
0
0
0
0
0
1
0
0
0
0
0
1
1
0
1
0
0
0
1
0
0
0
0
0
0
0
0
0
0
0
0
0
0
0
0
1
0
1
1
0
1
1
1
1
1
1
1
0
1
1
1
1
1
0
0
1
1
1
1
1
1
1
1
1
1
1
0
1
1
1
1
1
1
0
1
1
1
1
1
1
1
1
1
1
1
0
1
1
1
1
1
1
1
1
0
1
1
1
1
1
1
1
0
0
0
1
0
0
1
1
1
0
1
1
0
1
1
1
1
1
1
0
0
0
0
1
0
1
1
0
1
0
0
0
0
0
0
1
1
0
1
1
0
0
1
1
0
0
0
0
0
0
0
0
0
0
0
0
1
0
1
1
1
1
1
1
1
1
1
0
1
1
1
1
1
1
1
1
1
1
1
0
1
1
0
1
1
0
1
1
1
1
1
1
1
1
1
1
1
1
1
1
1
1
1
1
1
1
1
1
1
1
1
1
1
1
1
1
1
1
1
1
0
1
0
0
0
0
0
0
1
0
0
0
0
0
0
0
0
0
0
        </DataArray>
        <DataArray type="Float64" Name="density" format="ascii">
1001.829975688433
1001.82997567849
998.9724410916679
998.9724412263865
996.1143730367041
996.1143730977916
998.5862778754456
998.2019207401358
1001.380590437159
1003.658879651269
998.7715917657448
994.9970116230324
997.180474693027
994.5753156824843
1001.542688093726
1001.542687889368
1005.202025162285
998.7715917561012
991.941285995387
1014.047700985933
1014.047701024115
1012.927977510134
996.1230352299236
1000.693113808946
989.8759748660672
997.7019011457404
1000.693113795251
1000.094080943945
1002.133630192391
999.8137032162234
1000.872848633866
1000.872848742542
998.6564537996975
1004.103664918232
1003.390456289943
999.873132953753
999.8731329124741
1000.712934692084
1004.970897325279
997.433978146907
997.4339781742754
997.4842054493788
999.6795697642644
997.4842054134049
1004.497566070761
1000.169500142959
997.3092423798639
1000.733860954304
1000.733860932792
997.3678554376336
994.8145916211976
1006.583952798359
1002.567680912136
1001.792301092857
1001.792301071221
997.6470630153384
997.6470631478604
995.0600775557165
997.1412609539079
1001.166462500461
995.829174746683
996.6000874161982
999.3201599757967
1002.715351290701
1004.497566044715
997.8945875616571
999.1688509782995
1003.878610763545
992.1541781014062
1000.169500129015
997.0836457314199
1001.294423761317
1005.202025000443
999.3958423597894
1012.408161973281
1001.645054644914
1001.766596323533
996.0973246326643
998.7064028332787
998.7064028142985
1000.998636540012
1003.569294079719
995.1547853781404
996.6940775757531
1003.012315088945
1003.822177261264
1000.998635981491
1003.822177280545
997.0178181159432
1003.01231505567
995.1819964444288
999.6405447411518
1007.19411698045
1001.194806168852
999.6405443758844
1001.19751453594
998.201920725909
1001.957065568609
999.0807643369679
1006.046976250142
1001.808896907401
999.7460026641052
1001.344856935444
1008.226203276487
1001.521885087309
999.5500934382231
999.3083643906502
1001.890906238514
999.3675056783356
1000.810720033408
1000.810719968847
1000
1000
1001.600334569794
998.6317012139912
1002.321881569474
992.2892194341689
992.2892195102067
1000.071928682544
997.2838473886541
998.6929803620786
1021.14563342905
1020.495664538991
1018.104560929259
1016.514472837859
1012.005712118029
1021.463984393976
1006.40285428549
1000.693113821952
1004.22094720423
1001.49740145278
1001.497401448239
1003.531161985564
1003.531161989828
998.479664540162
1004.857674730053
1000.750125004758
1005.418387757898
1007.440344455399
1003.583030575215
999.753813422825
1003.579687578453
999.0944302432251
1002.89514130855
1003.520588516947
1003.520588652261
1004.247662479736
1004.247662379647
998.7400873114872
998.7400874662237
997.427672087417
992.0351856999808
1000.426423188609
1000.747566563881
997.8446367044668
996.0293603136707
1001.533832236385
1000.450805443204
1001.527878155746
1001.527878159836
1000.473848830178
1000.473848799996
1002.689592177679
1000.450805546026
1004.497566048833
1004.705115538718
999.5334674273366
999.5334674281191
1000.169500147192
997.9924742189805
995.6563399195418
997.9924742198447
999.7454128333536
1002.266388844869
1004.320525341679
1004.103909496646
1001.726149531811
998.6079751215972
992.0321799861472
998.4491861014599
997.4172900910617
994.4599199903475
1001.614899007787
1003.878610763178
1001.61489901747
1003.467741496089
1003.467741512761
1003.878610755271
1000.817781698634
998.4275712445358
999.9186421620084
1000.07242021808
1006.773682703236
1000
1000.040805490708
1000.101703008345
1000.153861382932
1000.290013145472
999.91864217592
997.0836456946647
997.2892637111615
1003.615874688993
1000
1000
1000
1000
1000
997.0836456914171
1011.837676515695
1001.43336559498
1000.501879474691
1001.315408677063
1001.112162429291
1001.199075562251
1000.038254199726
1001.709299333556
1002.424779984967
1001.65762825628
1002.886698983813
1001.35435046169
996.5815647780006
1002.797387401119
1000.53288408713
1000.446266326445
1000.487272816355
1000.578927745235
1000.611150215462
1003.154103622263
997.2141154196858
1000.572019050029
999.2079391598959
1000.638024043474
1000.039801165791
1000
1001.414688704287
1002.423801877098
999.7607103462548
992.4647076578718
997.0228902142173
998.4816066356661
1005.49709306084
1000
1000.450805504693
1000
1004.002677516104
1002.991248045749
1000
1000.214704222949
1005.303022568462
1000.638024347863
989.7260001944004
1000.566900942851
1001.078360243408
1004.220947029181
1006.40285417543
1021.463984371927
1000.566900922244
1000.049553385374
1006.980387889967
1005.303022750876
1000.214704429512
1002.137530456274
1000
1000.578299214816
1001.60946270684
1000
1002.991248062852
1004.002677494778
1000
1000.771357224748
1000.771357233601
998.7400874220635
1001.197514451183
1000.315833990742
1000.315834005498
998.4796645332973
979.1110512296156
1019.702877193269
1015.439697534593
1007.453182766704
1004.473577333399
1000.497266792249
1000
1000
1002.171547437106
1001.289086642632
1002.423801922643
1001.414688939305
1000
1001.471903834403
1000.929439795682
1001.337721214762
1001.257916821591
1001.550983253135
1000.611150122348
1000.578927706708
1000.487272812439
1001.736279381555
1001.402146078955
1001.063505552451
1001.654529075882
1002.438687911335
1002.886698970204
1001.657628214871
1002.424780033956
1001.600951157203
1000.735293081369
1000.209277676769
1000.253084467203
1000.524454231202
1001.199075603949
1001.112162426994
1001.315408661684
1000.795830986715
1000.94151059318
1000.545825386597
1000.006039566846
1000
1000
1000
1000
1000.041978039464
1000.382593816088
1000.982320037018
1000.629387249905
1000.290013127639
1000.153861374836
1000.101703008017
1000.040805491785
1000
1000
997.5510361046888
1000
1000
1012.312584397931
998.8769161991855
998.5096395866497
1000.326336759074
994.8145917319254
999.7974766466715
1003.171616189246
999.5548121005053
1005.302908695971
998.509639638149
1003.950840410882
1000.326336642974
1019.702877278763
1019.702877170692
1015.439697638989
1015.439697478436
1007.453182710454
1004.473577199468
995.3977067299003
1005.497092977832
1003.658879770505
996.8371491136606
998.8344059649859
989.579829236807
1001.134724891185
998.9523648632561
1003.309569185077
1003.309569088401
992.4647077422202
1001.861918025445
999.0944302483182
1001.544194724576
999.1117404272693
997.0084115355744
997.2581393613683
1003.07279308069
1001.341530256646
1003.985061368569
992.499516931488
999.111740376227
1009.673538626885
997.0084115473236
1000.04955345969
991.0190168422407
1001.78803821355
1000.488891995562
1000.488892061314
1008.644010692999
1007.891713826223
996.6000873183763
981.425183915872
998.1707096634422
989.5798291927606
1005.059076720835
1001.218243639038
1000.974244303983
997.9833651435185
998.164090645056
1000.974244114821
996.9153759540362
1000.03451403696
997.9833650537543
1000.034514009688
1001.788038247334
1008.644010719122
1007.891713793474
1000
981.4251836962841
1000
997.1804745640812
1000
1000.041978038216
1000.795830986809
999.7607103342223
994.9970116038837
997.2141153884271
1001.600951159856
1001.736279386019
1001.471903825664
1000.497266794989
1002.137530454138
1006.773682685662
1021.145633433737
1005.302908645946
1004.970897595325
992.4995169434451
997.1804746473482
997.0712025377596
997.0712026594748
1005.464683282216
1005.464683138192
1004.247662433432
1003.520588558064
1003.579687604974
1000.149558081513
1000.149558124885
1002.08244859503
999.8581061977392
999.4299582948705
1002.082448522028
999.308364501347
999.858106098612
999.4299581947562
1001.303127903512
996.8371491473517
996.5815647619582
1000.017076783112
992.2892194617889
1000.810720034594
1008.226203276747
1006.046976240629
996.6940776200528
1003.012315076743
996.0973246377207
999.8731329531664
1000.872848665548
1001.294423765354
1002.133630096606
998.0413462997291
979.1110511884549
971.3554545089584
1010.202783114929
997.4842054481335
997.4339781937065
997.4276721773582
1001.303127777929
1000.426423214437
998.656453823062
994.5753156496563
998.6079751388412
998.4491860984764
998.1640903412041
1003.985061331574
1001.341530397025
986.1400752812394
1003.072793088649
997.258139195373
1002.085120124988
998.952364928748
999.5548120574963
1003.171616247711
999.7974766548112
996.5815646195832
1000.817781826111
1001.354350554668
997.7234217592662
1006.980387909505
1020.495664527313
1018.104560894713
992.4995169387344
1016.51447284976
1012.00571220658
1003.615874678299
1001.4333656323
1000.038254204571
1000.532884108795
1000
1000.578299288272
1001.609462728899
1000
1000
1000
1002.171547490038
1001.289086681403
1000.929439792892
1001.337721276126
1001.257916849263
1001.550983333971
1001.402146088442
1001.063505628321
1001.654529096191
1002.438687847216
1000.735293101669
1000.209277675455
1000.25308444608
1000.52445418196
1000.941510586593
1000.545825391345
1000.006039574221
1000.3825937934
1000.982320021328
1000.629387288084
1005.302908522842
1000
1000
1000
1002.085120244217
999.439840744339
1001.088860817213
1001.166462385875
1000.793968039922
1002.156914580795
1002.156914624032
999.449330173383
1001.134725014183
1000.04197802283
1000.382593786217
1000.795830977829
1000.941510588261
989.875974822176
1012.927977514995
991.94128563791
995.8291746801623
1001.645054669449
997.1412610268159
1001.766596336073
996.6012139759196
1001.116737583225
995.0600777179653
1001.600951166677
1000.735293107508
999.0807643783595
996.6012139473972
1001.344856962226
999.8299719946542
1001.736279398357
1001.402146084552
994.9970116260314
1001.380590581051
998.5862780183201
1002.055732956012
1001.471903834012
1000.929439788135
1001.808896927653
999.8299719800455
999.5385937515877
999.3675057100259
1000.996485054322
1000.394830599948
1000.497266793427
1002.321881585882
1002.321881543593
995.154785376667
1001.194806173661
997.8919929176881
999.5385937114852
1000.071928665492
1000.660390484296
1000.660390385336
1000.071928690918
999.6067403590496
1000.394830549507
1001.890906236088
1001.890906240264
999.7460026695961
971.3554545185599
1010.202783046466
998.201920734077
1000.779902567805
998.5945749806018
999.9912565594223
1001.600334574386
1000.560525194462
997.7019011011516
999.8137031710514
997.8919928546771
997.2838473539308
997.2838473685121
999.4832046065295
999.4832046117455
1002.137530431506
1003.583030553023
1007.440344447646
1007.440344451277
998.0413463473291
1002.05573295976
997.3678554096692
1002.567680883727
999.0086974187216
1005.392826888574
1000.779902647426
979.1110513545163
971.3554544367321
1001.521885156389
1000.996485031333
996.0293603014196
1006.773682677914
997.8690037779173
997.8446366802682
997.8446366677439
1001.726149547174
1004.10390951769
1004.103909482305
999.7460026414851
996.8371491931061
1001.497401439297
997.9924742191736
999.0086973906771
999.5500934628157
1021.145633430593
996.9364871709586
996.9364871358611
1000.881111649245
1003.299926541656
1001.924263248703
994.6963445062306
999.5500934953055
994.4599199938447
997.4172900799821
997.4172900459721
997.0228902324545
998.4816066619702
998.4816066241489
1000.572019068151
999.207939199207
999.2079391455815
999.7538134994654
1001.533832137265
999.2199593282123
1002.689592133101
1002.689592225276
999.2199592542189
1001.384056479403
1000.881111639152
1002.797387401849
1000.750125023152
1005.418387733552
1002.895141301655
1002.797387377059
1003.154103576815
1003.154103618769
1000.747566572549
1001.533832292915
995.829174649476
996.6000872593168
994.4599199734697
1001.166462524718
1004.320525334783
1002.266388842654
1000.017076806624
999.0086974595866
1001.788038160818
1000.572019018127
996.0293602790601
998.4158632188916
998.415863179787
997.8945875571005
999.1688509789134
997.8919929050317
1000.149558052346
1002.082448515176
1001.384056458398
1000.712934727903
999.6795698051794
999.538593781708
1001.384056443618
999.3393737488428
999.3393736845655
999.7460026737899
1000.017076688713
1000.751581603567
1000.751581596745
1002.32188159766
998.2019207298392
1001.697028270594
1001.89090620146
999.5751135559966
999.5751135397697
1000.808303265299
1000.808303265693
1001.697092438242
1001.697092410681
1000.712934659622
992.4995169563424
999.9187924960366
999.7460026645548
997.8457007208663
997.845700630445
998.6317012094173
1001.89090621859
998.2019207277501
1002.234459082877
997.5608367010353
999.5548120699209
1002.321881562022
1003.390456267486
998.9604262393623
1003.128421824374
1003.128421804107
1001.674188182129
999.5936923964503
997.809461597731
1002.976310656812
997.0228902029535
994.4599199774674
1003.583030533207
1001.777712206625
1001.777712218182
1002.609894423168
1002.609894438405
999.5460401510522
999.991256532699
1002.567680915639
999.5460401100697
1003.564546648055
998.6929803262701
1001.194806160238
995.1547853627372
997.9444279279368
1003.564546696783
995.6563399085256
999.533467421845
1000.473848821708
997.2892637140133
999.9186421729015
1003.467741512407
996.0293602905293
1001.726149522215
998.4895453789925
1000.693113825077
1000.693113817132
1001.497401441349
1001.497401448981
1004.857674722902
1000.872848711257
997.4339781144058
1007.440344455416
1007.440344436754
998.4895453407214
997.8446366869267
997.8446366871259
1001.01447364828
1001.014473615604
1004.497566069902