<VTKFile type="PolyData" version="1.0" byte_order="LittleEndian" header_type="UInt64">
  <PolyData>
    <Piece NumberOfPoints="2203" NumberOfVerts="2203">
      <Points>
        <DataArray type="Float64" Name="Points" NumberOfComponents="3" format="ascii">
0.03703082524200985 0.02267169397965801 0.01736011849014584
0.03804469911998663 0.03242019862424429 0.001788447946119924
0.1108715154358565 0.03837073339220167 0.04527387555330972
0.04689097415092462 0.03524044131630786 0.0927966079311507
0.05912848456489655 0.03837073339263277 0.04527387554770936
0.1270334875187184 0.03275986214957905 0.093061914889409
0.06455845548379707 0.03569486543847118 0.03671307651630423
0.1370309281108091 0.0411304297590403 0.04932879469802871
0.1396876169423097 0.03031238306018811 0.05328187778361091
0.1378119974883435 0.03935982100096446 0.04491540519939822
0.09000873028694352 0.03186842942177049 0.01723312403683849
0.1306401789999865 0.0321880025143714 0.04491540519795661
0.1516446693810317 0.02767439027608 0.06026561897171732
0.0277593068608914 0.01743354058200679 0.0391388652525595
0.1423256097253288 0.01835533062278313 0.06026561896545211
0.08958202257978531 0.04730973979083772 0.006280436287467687
0.1288695702417993 0.03296907188936991 0.04932879469866323
0.1402655721261883 0.0297344278796215 0.04711442021648333
0.1339781378906919 0.0186597038156226 0.05297357730413656
0.1513402961904227 0.03602186211137285 0.05297357730469012
0.08102944344029811 0.02204662133105582 0.01938803911630431
0.07217182714192677 0.01907455572804485 0.02353439963673121
0.1518042610912812 0.01819573891023866 0.06599315693633689
0.1348046383275375 0.01988095866738834 0.05951283556375905
0.1387045574371612 0.03807979173951651 0.03307608232983023
0.01743354058127027 0.02775930685974207 0.03913886524817962
0.0800418692064496 0.0250539190006208 0.01416268333552653
0.02503767117831341 0.02503767118530855 0.0320131536258015
0.1319202082580497 0.03129544257486148 0.03307608233020085
0.04532054447678988 0.02824970385501404 0.01409006386681541
0.05139369589911313 0.03742224662077902 0.0431665025898039
0.1424317669679615 0.01820545260798715 0.04614949811594624
0.08217286480236705 0.03214387472310459 0.001278005972126492
0.04473472267240568 0.03275249485278441 0.01861356466896435
0.1517945473834225 0.02756823304010396 0.04614949811838777
0.07294264114557102 0.03092513265455432 0.01051635844042111
0.1319553007904062 0.032420198746275 0.001788447734424289
0.1375798012818147 0.03804469919445025 0.001788447759988164
0.1074993861136157 0.02125037027709299 0.05097765437157736
0.1516644661595809 0.02751236476099985 0.05317555346466366
0.06250061388722961 0.0212503702797708 0.05097765436946812
0.08222756400768159 0.03107139820149092 0.00981760345892981
0.1424876352399077 0.01833553384038504 0.05317555346182701
0.1468111377919029 0.02318886220932255 0.02740029582867667
0.124744256227028 0.02003607754370755 0.05579217333944655
0.07276195087815526 0.01915586840269856 0.03022941362166222
0.08119053068676189 0.01997537316923346 0.02650711421370405
0.05894819676019364 0.02870199273176491 0.01443056647199584
0.1339053268571845 0.02769642251248413 0.01074096150825797
0.04525574377927565 0.02003607753989939 0.05579217334866438
0.1423035774634057 0.0360946731617072 0.01074096147475607
0.03296907188908801 0.04113042975862596 0.04932879469797138
0.04113042975581124 0.03296907189075205 0.04932879469069609
0.1473416153969886 0.03769515077486359 0.01896751924362264
0.1422406931369898 0.01743354057480969 0.03913886523968157
0.07401180025501114 0.04173758934646889 0.0377511904265389
0.09598819974349107 0.04173758936228137 0.03775119042825972
0.09497063332503045 0.04871235760544433 0.02603999354193375
0.1525664594182916 0.02775930686657954 0.03913886522971052
0.1269579689013505 0.03455296774512307 0.05333769367171157
0.1324033818999809 0.01707499425797835 0.03047341511586405
0.1450877722720419 0.02491222741989922 0.01521894550214764
0.1493471502504843 0.02065284967755485 0.02446692019004746
0.1618131578947369 0.02626052631578947 0.04295769230769231
0.1618131578947369 0.01722368421052631 0.04295769230769231
0.06569442100939744 0.02956660905259511 0.004183023104104966
0.07656261797609293 0.02979798190455332 0.001172544070867881
0.1618131578947369 0.008186842105263157 0.04295769230769231
0.07200845923159656 0.0218303494879778 0.04834220460353161
0.1465714770468793 0.02342852335249384 0.01714369120417931
0.09799154077042867 0.02183034949231823 0.04834220459709758
0.1618131578947369 0.03529736842105263 0.03419615384615385
0.03909366319791481 0.03019709800789011 0.1017640995337473
0.1244031896785928 0.03708795947720183 0.1042969270865566
0.04559681031207851 0.03708795946990162 0.1042969270871219
0.1618131578947369 0.02626052631578947 0.03419615384615385
0.08849002585171406 0.04127015323799777 0.03658194617841933
0.0198809586730948 0.03519536166917722 0.05951283557047659
0.07066025750662359 0.03219064836347649 0.00419845107246336
0.06567773753634643 0.02788476469664641 0.0111887974731655
0.05435565854416397 0.02355673784527922 0.01824438724523831
0.03519536167380484 0.01988095866913185 0.0595128355612097
0.0912604746389218 0.0297298157832427 0.01156826142922744
0.08078112681787562 0.02043902423796755 0.03346686155561918
0.07179179178572667 0.01999873659186817 0.03673549803026986
0.1618131578947369 0.01722368421052631 0.03419615384615385
0.1126224833447857 0.03574269781533991 0.04150892262208087
0.1618131578947369 0.008186842105263157 0.03419615384615385
0.1618131578947369 0.03529736842105263 0.02543461538461539
0.05737751664860574 0.03574269782230256 0.04150892261120741
0.1618131578947369 0.02626052631578947 0.02543461538461539
0.1618131578947369 0.01722368421052631 0.02543461538461539
0.05035907434327879 0.03790606663241514 0.09465197037675331
0.04456432107721492 0.01672216199383644 0.03015393218460101
0.07144473684210526 0.008186842105263157 0.01667307692307693
0.1618131578947369 0.008186842105263157 0.02543461538461539
0.1237300792145216 0.04023388941379384 0.0564309415712144
0.03031238306177506 0.03031238306462522 0.05328187777693067
0.06240789473684209 0.008186842105263157 0.01667307692307693
0.05337105263157894 0.008186842105263157 0.01667307692307693
0.04433421052631578 0.008186842105263157 0.01667307692307693
0.03529736842105263 0.008186842105263157 0.01667307692307693
0.1136123746052787 0.03727211831775212 0.03058145844584631
0.04539256469558706 0.03353750522483084 0.001748427996673398
0.0805079885811411 0.02236755954904031 0.04735322534882572
0.1618131578947369 0.03529736842105263 0.01667307692307693
0.1618131578947369 0.02626052631578947 0.01667307692307693
0.1618131578947369 0.01722368421052631 0.01667307692307693
0.0894920114187478 0.02236755954739878 0.04735322533661222
0.04296651249839634 0.03275986215962364 0.09306191488263937
0.1119051220987193 0.04191353833015841 0.08820077815055354
0.05809487790288966 0.04191353832100523 0.08820077815319055
0.1618131578947369 0.008186842105263157 0.01667307692307693
0.1618131578947369 0.03529736842105263 0.007911538461538463
0.02184433519839502 0.03159867602058411 0.1029148609257769
0.1618131578947369 0.02626052631578947 0.007911538461538463
0.03159867602813966 0.02184433520533656 0.1029148609078269
0.1618131578947369 0.01722368421052631 0.007911538461538463
0.1618131578947369 0.008186842105263157 0.007911538461538463
0.1527763157894737 0.008186842105263157 0.01667307692307693
0.1025582615048115 0.0359628059689836 0.07987683323993737
0.08111899690139017 0.03293522426315769 0.07380269628868479
0.1527763157894737 0.008186842105263157 0.02543461538461539
0.1527763157894737 0.008186842105263157 0.03419615384615385
0.03529736842105263 0.008186842105263157 0.02543461538461539
0.04433421052631578 0.008186842105263157 0.02543461538461539
0.08864880104728561 0.03834156499560454 0.07634427580378518
0.1527763157894737 0.008186842105263157 0.04295769230769231
0.1166015725280469 0.01902600551524452 0.05140787442169487
0.05337105263157894 0.008186842105263157 0.02543461538461539
0.06240789473684209 0.008186842105263157 0.02543461538461539
0.05339842747157054 0.01902600552118114 0.05140787442875121
0.1527763157894737 0.008186842105263157 0.05171923076923078
0.0888810031011585 0.03293522424016653 0.07380269628158538
0.09630270090789965 0.03187195092225919 0.0750090938408786
0.09624204808290841 0.03497403965507567 0.03516993651153589
0.07375795191498574 0.03497403966773285 0.03516993649928443
0.1527763157894737 0.008186842105263157 0.06048076923076924
0.07443039545897789 0.03599966311386017 0.07745588802350645
0.03984094847689326 0.03514679769941795 0.01966450972003894
0.05093986720032358 0.02941477629327355 0.007951879910934994
0.08867476700073561 0.029636333971313 0.03547815023707732
0.09300034999889958 0.0525128379342812 0.05812167024958083
0.1527763157894737 0.008186842105263157 0.0692423076923077
0.1527763157894737 0.008186842105263157 0.07800384615384616
0.1347026315789474 0.008186842105263157 0.03419615384615385
0.1257872346368924 0.0283417167562749 0.02743507899969864
0.1437394736842105 0.008186842105263157 0.03419615384615385
0.04897352857876528 0.03671529781041004 0.03938846216465809
0.1512218995299545 0.0281879613251881 0.01927864274276971
0.1157521608463877 0.0192483561757339 0.02661789373821204
0.03935982100041996 0.03218800251779692 0.04491540519800161
0.03218800251740852 0.03935982100176361 0.04491540519102981
0.1516797029453495 0.01832029705123696 0.05014971451371252
0.1455451368203423 0.02799762612728761 0.0124826962548352
0.0965639317272755 0.02968404624635015 0.07206911875014524
0.1518982962299177 0.01810170377913459 0.04236958363917782
0.1386882108774246 0.03193077721048321 0.002420712871963377
0.03514679773567243 0.03984094849758427 0.01966450972955603
0.0734360682715956 0.02968404625133076 0.0720691187439543
0.09723804913007415 0.01915586840724245 0.03022941361157963
0.1523371467587243 0.01766285325508933 0.03258239371825541
0.08893569326755295 0.0296220918303888 0.0700920661690959
[...]
      <PointData>
        <DataArray type="UInt64" Name="type" format="ascii">
1
1
1
1
1
1
1
1
1
1
1
1
1
1
1
1
1
1
1
1
1
1
1
1
1
1
1
1
1
1
1
1
1
1
1
1
1
1
1
1
1
1
1
1
1
1
1
1
1
1
1
1
1
1
1
1
1
1
1
1
1
1
1
0
0
1
1
0
1
1
1
0
1
1
1
0
1
1
1
1
1
1
1
1
1
0
1
0
0
1
0
0
1
1
0
0
1
1
0
0
0
0
1
1
1
0
0
0
1
1
1
1
0
0
1
0
1
0
0
0
1
1
0
0
0
0
1
0
1
0
0
1
0
1
1
1
1
0
1
1
1
1
1
0
0
0
1
0
1
1
1
1
1
1
1
1
1
1
1
1
1
1
1
1
1
1
1
1
1
0
0
1
1
1
1
1
0
0
0
1
1
0
1
0
0
0
0
1
1
1
0
1
0
1
1
1
1
1
1
1
1
1
1
1
0
1
0
0
0
1
1
1
0
1
1
1
1
0
0
0
1
1
1
1
1
1
0
1
1
1
1
1
1
0
1
1
1
0
0
0
0
0
1
0
1
0
1
1
1
1
0
0
1
1
1
1
1
1
1
1
1
1
1
1
1
1
1
1
0
1
0
0
1
0
0
0
0
1
0
0
1
0
1
1
1
0
1
0
1
0
0
0
0
0
1
1
0
0
1
1
0
0
0
0
0
0
1
1
0
1
1
0
1
1
1
1
0
1
1
1
1
1
1
1
1
0
1
1
1
1
1
0
0
0
0
0
0
0
1
1
1
1
1
1
1
1
1
1
1
1
1
1
1
1
1
1
1
1
1
1
1
1
1
0
0
1
0
0
0
1
1
1
1
1
1
0
0
1
1
1
0
0
0
1
1
1
1
1
1
1
0
0
0
0
0
1
1
1
0
0
0
0
0
1
1
0
0
0
0
0
1
1
1
1
0
0
0
0
0
1
1
0
0
0
0
0
1
1
0
0
0
0
0
1
1
1
1
1
1
1
1
1
1
1
1
1
1
0
0
0
0
0
0
1
1
1
1
1
1
0
0
0
0
1
1
0
0
0
0
1
1
1
1
0
0
1
1
1
1
1
1
1
1
0
0
0
0
1
1
1
1
1
1
1
1
1
1
1
1
1
1
0
0
0
0
0
0
1
1
1
1
1
1
1
1
1
1
1
1
1
1
1
1
1
1
1
1
1
1
1
0
1
1
1
0
0
1
1
1
1
1
1
0
1
1
1
1
1
1
1
1
0
1
1
0
1
1
1
0
1
0
0
0
0
0
1
1
1
1
0
1
1
1
0
0
0
0
1
1
0
0
0
1
1
0
1
1
1
1
0
1
1
1
1
1
0
0
1
1
1
1
1
0
0
1
1
1
1
1
1
1
1
1
1
0
0
0
0
0
0
1
0
0
1
0
0
0
0
1
0
0
0
0
0
0
0
0
0
0
0
0
0
0
0
1
0
1
0
0
0
0
0
0
0
0
0
0
0
0
0
1
0
0
1
0
0
0
0
1
0
1
0
0
1
1
1
1
1
1
1
0
1
1
1
1
1
1
1
1
1
1
1
1
1
1
1
1
1
1
1
1
1
1
1
1
1
1
0
0
1
0
1
1
1
1
1
0
1
0
1
0
1
1
0
1
0
1
0
1
0
0
1
0
0
1
1
0
0
0
1
1
1
1
1
1
0
1
1
1
1
0
1
1
0
1
1
1
1
1
1
1
1
1
1
1
1
1
1
1
1
1
1
1
1
1
1
1
1
1
1
1
1
1
1
1
1
1
1
1
1
1
1
1
1
1
1
1
1
1
1
1
1
1
1
1
1
1
1
1
1
1
1
1
1
1
1
1
1
1
1
1
1
1
1
1
1
1
1
1
1
1
1
1
1
1
1
1
1
1
1
1
1
1
1
1
1
1
1
1
1
1
1
1
1
1
1
1
1
1
1
1
1
1
1
1
1
1
1
1
1
1
1
1
1
1
1
1
1
1
1
1
1
1
1
1
1
1
1
1
1
1
1
1
1
1
1
0
0
1
1
0
0
1
1
0
0
0
0
0
0
0
0
0
0
0
0
0
0
0
1
1
1
1
1
1
1
1
1
1
0
0
0
1
0
0
0
1
0
0
0
1
1
1
1
1
0
0
0
1
1
1
1
1
1
1
1
1
1
1
1
1
1
1
1
1
1
1
1
1
1
0
0
0
0
0
1
1
1
1
1
1
1
1
1
1
1
1
1
1
1
1
0
0
0
0
0
0
0
0
0
1
1
1
1
1
1
1
1
0
0
0
0
0
0
0
0
0
1
1
1
1
1
1
1
1
1
1
1
1
1
1
1
1
1
1
1
1
1
1
1
1
1
1
1
1
1
1
1
1
1
1
1
1
1
1
1
1
1
1
1
1
1
1
1
1
1
1
1
1
1
1
1
1
1
1
1
1
1
1
1
1
1
1
1
1
1
1
1
1
1
1
1
1
1
1
1
1
1
1
1
1
1
1
1
1
1
1
1
1
1
1
1
1
1
1
1
1
1
1
1
1
1
1
1
1
1
1
1
1
1
1
1
1
1
1
1
1
1
1
1
1
1
1
0
0
0
1
1
1
1
1
1
1
1
1
1
1
1
1
1
1
1
1
1
1
1
1
1
1
1
1
1
1
1
1
0
0
0
0
0
0
0
1
1
1
1
1
1
0
0
1
1
1
1
1
1
1
1
1
1
1
1
1
1
1
1
1
1
1
1
1
1
1
1
1
1
1
1
1
1
1
1
1
1
1
1
1
1
1
1
1
1
1
1
1
1
1
1
1
1
1
1
1
1
1
1
1
1
1
1
1
1
1
1
1
1
1
1
1
1
1
1
1
1
1
1
1
1
1
1
1
1
1
1
1
1
1
1
1
1
1
1
1
1
1
1
1
1
1
1
1
1
1
1
1
1
1
1
1
1
1
1
1
1
1
1
1
1
1
1
1
1
1
1
1
1
1
1
1
1
1
1
1
1
1
1
1
1
1
1
1
1
1
1
1
1
1
1
1
1
1
1
1
1
1
1
1
1
1
1
1
1
1
1
1
1
1
1
1
1
1
1
1
1
1
1
1
1
1
1
1
1
1
1
1
1
1
1
1
1
1
1
1
1
1
1
1
1
1
1
1
1
1
1
1
1
1
1
1
1
1
1
1
1
1
1
1
1
1
1
1
1
1
1
1
1
1
1
1
1
1
1
1
0
0
0
1
0
0
0
1
1
1
1
1
1
1
1
1
1
1
1
1
1
0
0
0
0
0
0
0
0
0
0
0
0
0
0
0
0
0
0
0
0
0
1
1
1
1
1
1
1
1
1
1
1
1
1
1
1
1
1
1
1
1
1
1
1
1
1
1
1
1
1
1
1
1
1
1
1
1
1
1
1
1
1
1
0
0
0
0
0
0
0
0
0
1
1
1
1
1
1
1
1
1
1
1
1
1
1
1
1
1
1
1
1
1
1
1
1
1
1
1
1
1
1
1
1
1
1
1
1
1
1
1
1
1
1
1
1
1
1
1
1
1
1
1
1
1
1
1
1
1
1
1
1
1
1
0
0
0
0
0
0
1
1
1
1
1
1
0
0
0
0
0
0
0
1
1
1
0
0
1
1
1
1
1
1
1
1
1
1
1
1
1
1
1
1
1
1
1
1
1
1
1
1
1
1
1
1
1
1
1
1
1
1
1
1
1
1
1
1
1
1
1
1
1
1
1
1
1
1
0
0
0
0
0
0
0
0
0
0
0
0
0
0
0
0
0
0
1
1
1
1
1
1
1
1
1
1
1
1
1
1
1
1
1
1
1
1
1
1
1
1
1
1
1
1
1
1
1
1
1
1
1
1
1
1
1
1
1
1
1
1
1
1
1
1
1
1
1
1
1
1
1
1
1
1
1
1
1
1
1
1
1
1
1
1
1
1
1
1
1
1
1
1
1
1
1
1
1
1
1
1
1
1
1
1
1
1
1
1
1
1
1
1
1
1
1
1
1
1
1
1
1
1
1
1
1
1
1
1
1
1
1
1
1
1
1
1
1
1
1
1
1
1
1
1
1
1
1
1
1
1
1
1
1
1
1
1
1
1
1
1
1
1
1
1
1
1
1
0
0
0
0
1
0
1
0
0
0
1
0
0
0
0
1
0
0
0
0
1
0
1
0
0
0
0
0
1
0
0
0
0
0
0
0
0
0
0
0
0
0
0
0
0
0
0
0
0
0
0
0
0
0
0
0
0
0
0
0
0
0
0
0
0
0
0
0
0
0
0
0
0
0
0
0
0
0
0
0
0
0
0
1
0
0
0
0
0
1
0
0
0
0
0
1
0
0
1
0
0
0
0
0
0
0
0
0
0
0
0
0
0
0
0
0
0
0
0
1
1
0
0
0
0
0
0
0
0
0
0
0
0
0
0
0
0
1
0
0
0
0
0
1
0
0
0
0
0
0
0
0
1
0
0
0
0
0
0
0
1
1
1
1
1
1
1
1
1
1
0
0
0
0
0
0
0
0
0
0
0
0
0
0
0
0
0
0
0
0
0
1
1
1
1
1
1
1
1
1
1
1
1
1
1
1
1
1
1
1
1
1
1
1
1
1
1
1
1
1
1
1
1
1
1
1
1
1
0
1
1
1
1
1
1
1
1
1
1
1
1
1
1
1
1
1
1
1
0
1
1
1
1
1
1
1
1
1
1
1
1
1
1
1
0
1
1
1
1
1
0
0
0
0
0
1
0
0
0
0
0
1
1
0
1
0
1
0
0
1
1
1
1
0
1
1
1
0
1
1
1
1
1
0
1
1
1
1
1
0
0
0
0
0
0
0
1
0
0
0
0
0
0
0
0
1
0
0
0
1
0
0
0
0
0
0
1
1
1
1
1
1
1
1
1
1
1
1
1
0
0
0
0
0
0
0
0
0
0
1
1
1
1
0
0
0
0
0
0
0
0
0
0
0
0
0
0
0
0
0
0
0
        </DataArray>
        <DataArray type="Float64" Name="density" format="ascii">
1004.329267849408
999.8276039151166
1001.914492385779
1000.388346404535
1001.914492310244
999.9657924009788
1000.487953631272
1001.983665371706
1001.211090877922
1001.557276629387
1010.063929721154
1001.55727658466
999.8062432750073
994.6816786183344
999.8062433382705
993.1824271784033
1001.983665314183
1003.681005145921
1000.589619151576
1000.589619192273
998.3836035137813
992.5934038693481
1001.131193687004
999.1601613085371
991.7864582982052
994.6816785709823
999.7439115042665
1006.882733414126
991.7864582504636
991.7598382261228
999.5866233470051
1000.508488575884
1002.047840794794
1007.642895954503
1000.508488610245
991.5053820798572
999.8276040633042
999.8276040116506
995.733237598488
1001.149928415341
995.7332375548447
1008.637313431331
1001.149928437497
1016.978787000295
997.8393128522396
999.4074684712057
998.4009928927558
1001.151033380557
996.601695210006
997.8393128621519
996.6016950718414
1001.983665356573
1001.983665368442
983.993191430171
994.681678516534
1004.343167906543
1004.343167876321
998.5691519388683
994.6816785541184
1001.699879003737
997.0265514072839
996.1867299231802
990.7999718272956
1000.233578586045
1000.72943639102
993.5034110228817
995.6947949012141
1000.652298402418
999.6849488896083
991.7268810838854
999.6849488847558
1001.987402358672
1000.167611757585
999.5414203671861
999.5414203949599
1000
1005.565861416076
999.1601612570408
1002.953432031374
998.6235547899569
1004.184082592188
999.1601612684502
983.7983351292605
999.5889799756258
1000.490194606203
1000.052375802562
998.189311555696
1000.035865506288
1001.723167131872
998.1893115419336
1000
1000
999.6565943052062
998.1178032786441
1000
1000.157696016941
1001.200919754212
1001.211090927922
1000.99001471673
1002.145991774075
1001.62780493788
1000.228091152848
1003.539775140453
1002.413325756118
1002.584867078287
1000.22809116277
1000.699011869429
1001.650118741646
1002.584867081465
999.9657924000169
999.412629135107
999.4126290948695
1001.75182271239
1021.134973714061
999.154830331706
1002.890501464122
999.1548303369331
1002.212408299122
1001.292574057904
1001.650118814993
1001.593942393905
999.365261891391
1000
1000.052375799594
1001.723167149955
1004.341604046027
999.3687558607766
1000.729436405372
995.5306301497094
1004.703242407638
1000
995.5306301568614
1001.305864899801
999.3652618961564
998.3817501241174
991.5724999031368
991.5724999914395
1000.662708644486
1000.533303667274
1002.092404361024
1000.738759102465
991.736805293498
999.9838837745654
1000.173096776466
1000.241633942424
1001.987402391005
1012.113426415318
1000
1001.490891180002
1000.397673736245
989.4644365182547
1001.557276675153
1001.557276575284
1000.230810756563
1004.327439675649
1002.662962998531
996.1897387929849
1000.054999616886
1002.092404186171
1002.662962966218
999.4074685173417
993.6274141547277
999.3038669681144
998.4009929573326
994.3745380868812
1002.486837566381
997.0265514260298
999.3038669763363
1001.630341017474
1000
1000.233578606058
996.4570380621619
996.5608021425713
1002.161318640491
998.2202160200289
998.2202160108126
1000.072469955447
1001.310732671874
1000
999.1775558920872
999.6565943267891
1000.346408827667
994.0415957452311
1000
1000
1000
1000
997.8311942342763
998.121945984298
998.1219460868606
1021.134973615977
999.8062433130791
1002.890501348694
1000.397673881092
999.8062432873406
994.7545129979992
1002.413325945796
994.7545130019082
997.0265516292516
997.0265513962595
1004.327439711338
1003.64734431893
1003.647344306739
1000.054999669166
1000
1005.565861450987
1000
1000.2280911187
1000
998.7990835229109
999.0196862140009
999.0196863111682
1000.699011790733
996.5117681250107
998.4408301011671
1001.584041099225
1002.054055124497
1000
1000
1001.723167096242
1007.642896087988
994.0415955543124
1000.626503519686
1007.303317682591
991.5053820447674
1008.637313563166
1000
998.4704300956216
1000.135951731351
1004.321177170749
1001.45609991425
1004.416642520916
999.5889799768872
1000
1000.751424105847
998.4704301503499
1002.794381668884
1000
1000
1000
1000
1000
996.5117681720747
1000
1002.4256817422
1000
1000.619902751101
1000.540096922228
1003.384353336226
1000.490194599256
1000
1000
1000.619902672705
1000.986382426045
1000.955717263244
1007.303317661312
999.820185468898
999.2154176179985
999.2154176400292
1000.167611748715
1001.283259105065
1004.329268187911
998.9258026746863
1003.721670574791
998.9258026359362
1001.571342810312
1004.329268048001
1004.829770622326
1000
1001.571342803045
1000.660980386358
1000
998.7353417244994
1001.305864871415
1000
1015.209337193955
1001.310732630849
998.735341676589
1000.072469948807
1000
998.5960093858938
1000.150057630985
991.7598383282542
998.9341345398703
999.5965616296867
1000.662708625444
996.7563765216424
1000.346408804229
1004.321176975559
1000
1000
1000
1000
1002.231811819427
996.1897388407563
1001.253144383055
1000
1000.072469939434
999.8209157568832
997.1284344987426
1000
1000
1000
1000
1000
1000
1010.063929829942
997.7081300367071
1017.56840879636
1016.978786951704
999.5965616335782
1000
1001.456099653666
983.9931914334355
983.9931916070253
999.107766868403
1000.5374033534
996.7662498199807
999.0913944832415
1003.681005263008
995.2951877979369
995.2951877042238
1000.891243792654
1003.765756858843
1003.765756771306
1000.173096767139
1006.480937934752
1006.480937898398
1001.13119373349
1000.589619190258
1000.589619231488
1000
1000
1001.671881807271
1000.241633931746
1000
1000
1002.212408262812
1004.866291884616
1004.866291928955
993.8205479671526
999.8489022909687
999.4915259361134
998.6942071499836
993.8205480676774
996.6677345217286
983.99319133658
1003.539775065588
1006.882733311841
996.4570380782276
997.9046791991663
999.8655059670109
998.3795253784898
1000.738759138562
1001.63034097432
998.379525246862
998.6942071416438
1002.44468778971
997.9046793403323
997.9046792908947
1001.151033416346
1000.530353642429
1002.092404004102
1004.341603975299
1004.703242340825
1001.722278500728
1000
1000
1000
1002.092403902061
1003.982949486189
993.5034110410936
1000.388346436421
1003.98294959659
999.1601612902658
1001.627804782192
1002.145991801116
1000.94399599248
1000.943995944747
1001.016602308077
1000.990014814962
1000
1000
1004.416642488122
999.570629013887
1001.328125957534
996.8896234848902
995.6947949596257
991.7864581131454
1001.270095123254
1006.598813734
1013.644045595811
1016.807528165881
1017.568408838384
1015.209337226605
1001.270095124357
1001.448568910129
1002.346552918923
1000
1000
1000
1000
1000
1002.34655295289
1000.530353628588
1000
1000
1000
1000
1000
998.1178030718921
997.2634035075964
1000.619902822116
1000.619902738914
1000
1000
1000
1000
1000
1003.982949680746
997.2634034897716
1000
1000
1000
1000
1000
1001.722278554349
999.9475513001081
1000
1000
1000
1000
1000
1003.982949610024
1000.508488706716
1002.205175402032
1004.184082587474
998.6235547675908
1000.508488654185
999.9475513435498
1000.69190196227
1000.230810768023
1000.691901968525
991.7864582167711
998.6581998244195
993.2845269378543
1002.047840875483
1000
1000
1000.2416339185
1000
1000
1000.173096772553
999.5706289801032
997.286107327954
998.183394205913
999.8655059423679
996.5117680583553
996.5117682152309
1000.537403366257
1000.173096778566
1000
1000
998.1833942063333
1001.430356431655
1016.807528108682
1013.644045586205
1006.598813848705
1021.134973634868
999.7888650977538
1001.270095113102
993.876561076666
1000.381615631724
1000
1000
1005.519560810055
1001.086084533936
1002.20517542377
998.9918860681616
997.668961252784
999.9475513079589
1002.346552999267
1002.444687837516
1001.671881810166
1000.241633924011
1000
1000
999.7022363734894
999.4915259786392
1000.318810791982
999.0849632710331
998.381750125831
1001.086084528662
997.9046793371923
1001.149928423748
1001.149928494323
1000.32695148738
1002.815637387559
998.9918860527849
998.4408304828262
1002.05405498317
1000
1000
1000
1000
1000
1000
1002.794381621855
1012.113426473333
989.4644367219801
1000.751424108344
1002.42568176907
1003.38435331411
1000.5400970285
1000.205218483276
1002.532024939716
998.9909172080188
1000.591498149695
999.8489022702681
1005.519560719767
1002.120507801196
999.5866233330258
1000.487953673927
1004.177929513809
1000.015651122513
998.017650214055
1002.947973107871
1002.94797309275
1002.815637355004
997.1284345757705
1000
996.7563764933803
994.3745381529369
999.7439116270258
1000
1001.650118810289
993.8205480172935
999.8209157073966
993.8205481027054
1000.986382401031
1002.953432059896
1004.329267973533
1000
996.7662498727617
1002.532024904779
1002.486837721088
998.9909172679208
992.5934040016182
1000.205218356616
998.3836035407613
997.8406494252955
1000
997.8311941743876
1000.397673682769
1000
1000.397673938583
993.6274141574527
1000.054999690802
1000.05237579941
993.284526887601
1000.346408801313
1000.662708630265
1000.699011804135
1001.310732653022
1001.305864878448
1001.283259115005
1003.721670380049
998.0176502513439
1000.054999627701
1000.233578605168
1001.584041167462
1000.015651086788
983.7983352023836
1000.72943639621
1000
1001.987402416904
1002.23181186928
1003.302195194415
996.6677344092247
1000
1000
1000
1003.30219522079
998.3795252403077
1000
998.3795252000405
999.4286047593749
996.1867298366371
991.7268812678774
1000
1001.448568941447
999.8276039624277
1018.31282661978
1018.312826556577
1001.490891105524
1002.890501249528
1002.21240825107
1001.253144370192
990.7999717786836
996.6016948573325
996.6016949663893
997.6689612639102
1000
1000
1000.015063052542
1002.120507828509
992.1994519903133
999.7365299030929
1004.32743976584
998.0174587743222
1000.108501446096
1001.593942383949
1000.701489986266
1000.318810801212
1000
1000
1000
1000.346408804029
1000.662708619841
1000.150057620606
1001.243034594217
1000
1000
1001.672206253616
1000.072469940227
1001.310732593617
1001.305864836875
1000.66098036698
995.9317087714401
1000
1000
1000
1000
1000.23357857029
1000.729436364595
1000.652298388755
1000
1000
1000
1000
1001.987402334733
1000
1000.052375795298
1000.035865503014
999.7888650970145
1000
999.0849632315675
1000
1001.723167243548
1000
1000
1000.157696013175
1000
1000
1000
1000
1000.228091175269
1000.699011970119
1001.650118682131
1001.751822693953
999.3687558822852
1000
1000
1001.016602352485
1021.134973850513
1002.890501490739
1002.212408298445
1001.292574042169
991.7368052829477
1000
1004.327439683206
1000
1000
999.5706289926932
1000.015063063062
999.9764213794716
999.9475512779885
1000.691902013389
1000.691901992038
1000.559832748155
1000
1001.200919735398
997.7081300139396
999.0913944420604
1000.108501453203
997.8406495226758
1000.955717264732
1000.943996023814
997.1793051521227
1000.559832715067
999.9764213965384
1000.533303660606
1000.943995991163
998.6313619961235
1001.270095116684
998.183394222626
998.6581997925938
996.5608021342847
1000.543373677597
1002.346552942399
998.911892524556
999.5706290145038
998.7990834630327
997.2634034650654
997.2634034877044
996.8896234263954
998.9118924661263
1000
1000
1000.909002115311
1000
1000.59149816748
1001.699879002658
995.9317087760463
1001.328125946211
998.0459700205199
1000
1000.543373696632
1000
998.0459700436179
1000
992.1994519350756
1004.177929499231
1000
1000.675513160602
1000
1000.326951529217
1000
999.1775558321193
1000
1000
1001.403499099665
1000
1000
999.8201854660723
1001.430356425761
1000
1000
1000
999.7365299491074
997.2861072767766
998.1833941934399
1000.701489963888
1001.243034618163
1001.038677998261
1000
1001.403499115136
999.107766857539
1000.675513171857
1000.319996595512
1000
1000.319996555255
1001.038677989413
1000
1001.39907172527
1001.780020445432
1000.396160819442
1000.699141790447
999.3687558696527
1000.015651165285
1000.559832795883
999.365261812628
999.9099313988029
1003.824876732886
1000.38161563604
999.0913945142613
997.1793050474635
1001.63814603234
1000.891243710801
1000.326951496698
1000.827317297395
1001.57134293134
1001.593942335614
998.5960093803129
998.3817502231612
999.4286048638787
1000.827317291382
1000.135951758092
999.2111715510385
1005.277572344051
998.7991334616647
1000.543373667596
1002.662962941208
999.9764213625307
996.4570380297347
996.5608020913288
1002.507090261007
995.9317088438889
996.3128453958498
999.1610549492884
1000.955800919456
1003.647344274536
999.8540240209488
999.7365299416502
1003.450874418036
998.9378664516421
1000.626503515727
1003.302195199603
1000.015063074213
998.9258026458592
1001.672206267027
1002.595845928408
1001.67220626498
1002.161318688271
1001.200919772677
997.0321404129288
993.9130240894393
996.3355416866801
1000.823079046346
1002.815637356445
998.9341345939295
1000.701489980151
1005.426023344016
1001.243034635226
1002.947973054424
997.8724612472932
998.5960094015119
1000.591498191153
1002.161318674712
999.3687559419261
992.1994519743314
1002.120507786149
997.6689613423168
998.99188603988
1000.5798974183
1000.307669825556
999.3038669165876
1005.51956065443
1001.699879052302
1002.444687785125
999.0849632423513
997.8406494632916
1001.086084499964
999.0196861767365
999.9838837041658
999.8489022480471
1000.817422855369
998.0176502188436
998.0174587765313
999.3038669923012
1004.177929501101
999.7888651137273
999.0196862650517
997.7081300416201
1000.135951752909
1000.108501462263
1001.571342904332
1000.533303727132
1004.866291885971
1004.866291931191
997.2281042415025
998.6942070892399
998.6942071909555
1000.559832808148
999.3652618266743
997.1793050871435
999.4286048270897
1000.891243789982
1003.824876756576
1000.626503496826
996.5608021278501
999.9838837551733
999.9099313586539
996.5523245954133
1002.222509766068
998.5691520570667
998.8096347315753
1001.581313732318
1000.173636170805
999.2111715870186
1001.584041164199
998.4408304275988
989.4644365112098
1012.113426434642
1002.654255242304
1003.539775026854
1000.751424129506
1007.642896042652
1002.794381738083
1000.490194670184
994.0415958545008
1007.303317698199
991.5053819358624
1004.321177121564
1000.540096971807
1001.456099942551
1002.425681730277
1003.384353418992
999.4074684319087
996.9895108128563
1001.63034095154
998.2202159382482
1005.099318695742
996.5444449838258
1002.054055096358
1004.416642445757
1000
1000
1001.28325906978
1003.721670586237
1000
1000
991.7598382893453
1001.91449237292
1000
1000
1000
1000
1000
1000
1000
1000
1000
1000
1000
1000
1000
1000
1000
1000.738759105061
1001.151033304582
993.5034110370158
995.6947948984504
1005.277572331064
998.0174588665943
1004.184082637912
998.9341345759028
1002.205175347808
998.1178030478584
1006.598813717984
1013.644045553632
1016.807528184944
1000.533303724986
1001.627804728946
1002.145991824036
1000.990014797542
1000.381615694221
1004.341603942002
1004.703242386254
1000
1001.197388884651
999.5866232783317
1000.833791791343
995.7332375880908
997.8393129419126
1002.231811854638
1000
1000
993.8765611183834
993.8765610602666
1004.343167903297
998.5691519820923
1005.565861384575
1005.565861425309
999.820915654644
996.7563764566852
998.6235547632751
996.766249873659
1000.205218360705
999.684948940058
998.189311552725
1002.532024938694
1002.584867053175
998.9909172664047
1002.584867113231
1001.253144417123
992.5934038230598
1000.707860104122
997.128434385987
1002.953432031542
1000
1000
1000
1017.568408806851
1000
1002.222509816346
995.53063013958
1001.448568988766
1018.31282664647
998.4704301589736
1005.115730988563
1005.115730998546
1001.368189165098
1006.743767845868
1000.487953780056
1010.063929796647
983.7983345182089
999.5889800085949
1008.637313560317
998.4009929487394
999.7439117825151
1000
1000
1000
1000
1000
1000
1000