<VTKFile type="PolyData" version="1.0" byte_order="LittleEndian" header_type="UInt64">
  <PolyData>
    <Piece NumberOfPoints="926" NumberOfVerts="926">
      <Points>
        <DataArray type="Float64" Name="Points" NumberOfComponents="3" format="ascii">
0.03593638276856016 0.1340636173436376 0.02604517509005341
0.03774204624315634 0.1322579536534441 0.02441915492565148
0.03414666258541747 0.1358533373470168 0.02708516928053603
0.1140309774912249 0.1289978416369726 0.004167499122939822
0.03927421019693739 0.1307257894879307 0.0224960041084847
0.1411131094189946 0.1294194026191796 0.02212954691529345
0.1294194030996383 0.1411131095648744 0.02212954734811718
0.04100215609228592 0.114030976785374 0.004167500732559211
0.04335023357322716 0.1266497658536359 0.01536455641957874
0.135853337141296 0.1358533371551964 0.02708516953455264
0.03324026599510106 0.1254152137835267 0.01861980397701684
0.1275302115396811 0.142038018709655 0.01889705862705072
0.1163684051074142 0.136840482981162 0.008750252305258182
0.008186842105263157 0.1618131578947369 0.08676538461538462
0.04486151637663997 0.125138483585992 0.01254271103908125
0.02716404274514335 0.1428359571032997 0.02692643329872705
0.04246978924797162 0.1420380186758363 0.01889705893205401
0.1420380181287121 0.1275302114572577 0.01889705904225018
0.1198757272517959 0.1371700038230095 0.01238773511355018
0.02796198044725345 0.127530210923129 0.01889705853442213
0.047008367862561 0.1229916270947934 0.008312136274902121
0.04433421052631578 0.1618131578947369 0.08676538461538462
0.008186842105263157 0.1437394736842105 0.1042884615384616
0.008186842105263157 0.1527763157894737 0.1042884615384616
0.02626052631578947 0.1618131578947369 0.1042884615384616
0.03529736842105263 0.1618131578947369 0.09552692307692309
0.008186842105263157 0.1437394736842105 0.09552692307692309
0.04458478586782959 0.1367597348566887 0.01861980430427657
0.116628947368421 0.1618131578947369 0.07800384615384616
0.04615448389464519 0.1238455201270118 0.006632791033292483
0.008186842105263157 0.1256657894736842 0.08676538461538462
0.1486220468767332 0.1356278747342063 0.01939966156917219
0.1356278732590696 0.1486220464439836 0.01939966115128716
0.008186842105263157 0.1618131578947369 0.1042884615384616
0.1428359569355778 0.1428359570764646 0.02692643343830396
0.1495158943598711 0.1411796277627744 0.01945937136177573
0.1450288814527781 0.1450288817139349 0.02534599466789358
0.1075921052631579 0.1618131578947369 0.07800384615384616
0.1411796272536273 0.1495158945686667 0.01945937168397894
0.01722368421052631 0.1618131578947369 0.1042884615384616
0.03529736842105263 0.1618131578947369 0.08676538461538462
0.116628947368421 0.1618131578947369 0.0692423076923077
0.1075921052631579 0.1618131578947369 0.0692423076923077
0.116628947368421 0.1618131578947369 0.06048076923076924
0.1075921052631579 0.1618131578947369 0.06048076923076924
0.116628947368421 0.1618131578947369 0.05171923076923078
0.04433421052631578 0.1618131578947369 0.1042884615384616
0.05337105263157894 0.1618131578947369 0.08676538461538462
0.1075921052631579 0.1618131578947369 0.05171923076923078
0.116628947368421 0.1618131578947369 0.04295769230769231
0.1075921052631579 0.1618131578947369 0.04295769230769231
0.116628947368421 0.1618131578947369 0.03419615384615385
0.08048157894736842 0.1618131578947369 0.007911538461538463
0.1075921052631579 0.1618131578947369 0.03419615384615385
0.08048157894736842 0.1618131578947369 0.01667307692307693
0.116628947368421 0.1618131578947369 0.02543461538461539
0.1075921052631579 0.1618131578947369 0.02543461538461539
0.116628947368421 0.1618131578947369 0.01667307692307693
0.1075921052631579 0.1618131578947369 0.01667307692307693
0.116628947368421 0.1618131578947369 0.007911538461538463
0.1075921052631579 0.1618131578947369 0.007911538461538463
0.08048157894736842 0.1618131578947369 0.02543461538461539
0.06240789473684209 0.1618131578947369 0.1042884615384616
0.08048157894736842 0.1618131578947369 0.03419615384615385
0.07144473684210526 0.1618131578947369 0.04295769230769231
0.08048157894736842 0.1618131578947369 0.04295769230769231
0.07144473684210526 0.1618131578947369 0.05171923076923078
0.08048157894736842 0.1618131578947369 0.05171923076923078
0.07144473684210526 0.1618131578947369 0.06048076923076924
0.08048157894736842 0.1618131578947369 0.06048076923076924
0.06240789473684209 0.1618131578947369 0.09552692307692309
0.05337105263157894 0.1618131578947369 0.09552692307692309
0.03529736842105263 0.1618131578947369 0.1042884615384616
0.02626052631578947 0.1618131578947369 0.08676538461538462
0.01722368421052631 0.1618131578947369 0.08676538461538462
0.008186842105263157 0.1256657894736842 0.1042884615384616
0.02626052631578947 0.1618131578947369 0.09552692307692309
0.1340636174326588 0.1340636171236126 0.02604517547765046
0.05596902273893779 0.1289978419829303 0.004167500092559054
0.01722368421052631 0.1618131578947369 0.09552692307692309
0.008186842105263157 0.1527763157894737 0.09552692307692309
0.008186842105263157 0.1618131578947369 0.09552692307692309
0.1256657894736842 0.1618131578947369 0.007911538461538463
0.1347026315789474 0.1618131578947369 0.007911538461538463
0.1437394736842105 0.1618131578947369 0.007911538461538463
0.1527763157894737 0.1618131578947369 0.007911538461538463
0.1618131578947369 0.1618131578947369 0.07800384615384616
0.1618131578947369 0.1527763157894737 0.07800384615384616
0.1618131578947369 0.1437394736842105 0.07800384615384616
0.1618131578947369 0.1347026315789474 0.07800384615384616
0.008186842105263157 0.1347026315789474 0.1042884615384616
0.1618131578947369 0.1618131578947369 0.0692423076923077
0.1618131578947369 0.1527763157894737 0.0692423076923077
0.1618131578947369 0.1437394736842105 0.0692423076923077
0.1618131578947369 0.1347026315789474 0.0692423076923077
0.06240789473684209 0.1618131578947369 0.08676538461538462
0.1618131578947369 0.1618131578947369 0.06048076923076924
0.1618131578947369 0.1527763157894737 0.06048076923076924
0.1618131578947369 0.1437394736842105 0.06048076923076924
0.1618131578947369 0.1347026315789474 0.06048076923076924
0.1618131578947369 0.1618131578947369 0.05171923076923078
0.1618131578947369 0.1527763157894737 0.05171923076923078
0.1618131578947369 0.1437394736842105 0.05171923076923078
0.1618131578947369 0.1347026315789474 0.05171923076923078
0.1256657894736842 0.1618131578947369 0.01667307692307693
0.1618131578947369 0.1618131578947369 0.04295769230769231
0.1618131578947369 0.1527763157894737 0.04295769230769231
0.1618131578947369 0.1437394736842105 0.04295769230769231
0.1618131578947369 0.1347026315789474 0.04295769230769231
0.1347026315789474 0.1618131578947369 0.01667307692307693
0.1618131578947369 0.1618131578947369 0.03419615384615385
0.1618131578947369 0.1527763157894737 0.03419615384615385
0.1618131578947369 0.1437394736842105 0.03419615384615385
0.1618131578947369 0.1347026315789474 0.03419615384615385
0.1618131578947369 0.1618131578947369 0.02543461538461539
0.1618131578947369 0.1527763157894737 0.02543461538461539
0.1618131578947369 0.1437394736842105 0.02543461538461539
0.1618131578947369 0.1347026315789474 0.02543461538461539
0.1618131578947369 0.1618131578947369 0.01667307692307693
0.1618131578947369 0.1527763157894737 0.01667307692307693
0.1618131578947369 0.1437394736842105 0.01667307692307693
0.1618131578947369 0.1347026315789474 0.01667307692307693
0.1618131578947369 0.1618131578947369 0.007911538461538463
0.1618131578947369 0.1527763157894737 0.007911538461538463
0.1618131578947369 0.1437394736842105 0.007911538461538463
0.1618131578947369 0.1347026315789474 0.007911538461538463
0.0536315953972899 0.1368404827998574 0.008750253282192248
0.1437394736842105 0.1618131578947369 0.01667307692307693
0.1527763157894737 0.1618131578947369 0.01667307692307693
0.1256657894736842 0.1618131578947369 0.02543461538461539
0.1347026315789474 0.1618131578947369 0.02543461538461539
0.1437394736842105 0.1618131578947369 0.02543461538461539
0.1527763157894737 0.1618131578947369 0.02543461538461539
0.1256657894736842 0.1618131578947369 0.03419615384615385
0.1347026315789474 0.1618131578947369 0.03419615384615385
0.1437394736842105 0.1618131578947369 0.03419615384615385
0.1527763157894737 0.1618131578947369 0.03419615384615385
0.1256657894736842 0.1618131578947369 0.04295769230769231
0.1347026315789474 0.1618131578947369 0.04295769230769231
0.1437394736842105 0.1618131578947369 0.04295769230769231
0.1527763157894737 0.1618131578947369 0.04295769230769231
0.1256657894736842 0.1618131578947369 0.05171923076923078
0.1347026315789474 0.1618131578947369 0.05171923076923078
0.1437394736842105 0.1618131578947369 0.05171923076923078
0.1527763157894737 0.1618131578947369 0.05171923076923078
0.1256657894736842 0.1618131578947369 0.06048076923076924
0.1347026315789474 0.1618131578947369 0.06048076923076924
0.1437394736842105 0.1618131578947369 0.06048076923076924
0.1527763157894737 0.1618131578947369 0.06048076923076924
0.1256657894736842 0.1618131578947369 0.0692423076923077
0.1347026315789474 0.1618131578947369 0.0692423076923077
0.1437394736842105 0.1618131578947369 0.0692423076923077
0.1527763157894737 0.1618131578947369 0.0692423076923077
0.1256657894736842 0.1618131578947369 0.07800384615384616
0.1347026315789474 0.1618131578947369 0.07800384615384616
0.1437394736842105 0.1618131578947369 0.07800384615384616
0.1527763157894737 0.1618131578947369 0.07800384615384616
0.1462073957818142 0.1462073960123011 0.01536554381415622
0.1376868042427259 0.1376868041659365 0.005506583212333591
0.008186842105263157 0.1256657894736842 0.09552692307692309
0.1367597341040323 0.125415214707885 0.01861980432408986
0.008186842105263157 0.1347026315789474 0.08676538461538462
0.008186842105263157 0.1437394736842105 0.08676538461538462
0.04433421052631578 0.1618131578947369 0.09552692307692309
0.1254152144889721 0.1367597333888679 0.01861980405806742
0.008186842105263157 0.1527763157894737 0.08676538461538462
0.008186842105263157 0.1618131578947369 0.07800384615384616
[...]
      <PointData>
        <DataArray type="UInt64" Name="type" format="ascii">
1
1
1
1
1
1
1
1
1
1
1
1
1
0
1
1
1
1
1
1
1
0
0
0
0
0
0
1
0
1
0
1
1
0
1
1
1
0
1
0
0
0
0
0
0
0
0
0
0
0
0
0
0
0
0
0
0
0
0
0
0
0
0
0
0
0
0
0
0
0
0
0
0
0
0
0
0
1
1
0
0
0
0
0
0
0
0
0
0
0
0
0
0
0
0
0
0
0
0
0
0
0
0
0
0
0
0
0
0
0
0
0
0
0
0
0
0
0
0
0
0
0
0
0
0
0
1
0
0
0
0
0
0
0
0
0
0
0
0
0
0
0
0
0
0
0
0
0
0
0
0
0
0
0
0
0
0
1
1
0
1
0
0
0
1
0
0
0
0
1
1
1
0
1
0
1
0
1
1
1
1
1
0
1
1
1
1
1
0
1
0
1
1
1
1
1
1
1
1
0
0
1
1
1
1
0
1
1
1
1
1
0
1
1
1
1
1
1
1
0
1
1
0
0
0
0
0
1
0
0
0
0
1
1
1
1
1
1
1
0
1
1
1
1
1
0
1
0
0
0
0
0
0
0
0
0
0
0
0
0
0
0
0
0
0
0
0
0
0
0
0
0
0
0
0
0
0
0
0
0
0
0
0
0
0
0
0
0
0
0
0
0
0
0
0
0
0
0
0
0
0
0
0
0
0
0
0
0
1
0
0
0
0
1
0
0
0
0
1
1
1
0
0
0
0
0
0
0
1
1
0
0
0
0
0
0
0
0
0
0
0
0
0
0
0
0
0
0
1
0
0
0
0
0
0
0
0
0
0
0
0
0
0
0
0
0
0
0
0
0
0
0
0
0
0
0
0
0
0
0
1
0
0
0
0
0
0
0
0
0
0
0
0
0
0
0
0
0
0
0
0
0
0
0
0
1
1
0
0
0
0
1
1
1
1
0
0
0
0
0
0
0
0
1
1
1
1
1
1
1
1
1
1
0
0
0
0
0
0
1
0
0
0
1
1
1
1
1
0
0
0
0
0
0
0
0
0
0
0
0
0
0
0
0
0
0
0
0
0
0
0
0
0
0
0
0
0
0
0
0
0
0
0
0
0
0
0
0
0
0
0
0
0
0
0
0
0
0
0
0
0
0
0
0
0
0
0
0
0
0
0
0
0
0
0
0
0
0
0
0
0
0
0
0
0
0
0
0
0
0
0
0
0
0
0
0
0
0
0
0
0
0
0
0
0
0
0
0
0
0
0
0
0
0
0
0
0
0
0
0
0
0
0
0
0
0
0
0
0
0
0
0
0
0
0
0
0
0
0
0
0
0
0
0
0
0
0
0
0
0
0
0
0
0
0
0
0
0
0
0
0
0
0
0
0
1
0
0
0
0
1
0
0
0
0
0
0
1
0
0
0
0
0
0
0
0
0
0
0
0
0
0
0
0
0
0
0
0
0
0
0
0
0
1
0
0
0
0
0
0
0
0
0
0
0
0
0
0
0
0
0
0
0
0
0
0
0
0
0
0
0
0
0
0
0
0
0
0
0
0
0
0
0
0
0
0
0
0
0
0
0
0
0
0
0
0
0
0
0
0
0
0
0
0
0
0
0
0
0
0
0
0
0
0
0
0
0
0
0
0
0
0
0
0
0
0
0
0
0
0
0
0
0
0
0
0
0
0
0
0
0
0
0
0
0
0
0
0
0
0
0
0
0
0
0
0
0
0
0
0
0
0
0
0
0
0
0
0
0
0
0
0
0
0
0
0
0
0
0
0
0
0
0
0
0
0
0
0
0
0
0
0
0
0
0
0
0
0
0
0
0
0
0
0
0
0
0
0
0
0
0
0
0
0
0
0
0
0
0
0
0
0
0
0
0
0
0
0
0
0
0
0
0
0
0
0
0
0
0
0
0
0
0
0
0
0
0
0
0
0
0
0
0
0
0
0
0
0
0
0
0
0
0
0
0
0
0
0
0
0
0
0
0
0
0
0
0
0
0
0
0
0
0
0
0
0
0
0
0
0
0
0
0
0
0
0
0
0
0
0
0
0
0
0
0
0
0
0
0
0
0
0
0
0
0
0
0
0
0
0
0
0
0
0
0
0
        </DataArray>
        <DataArray type="Float64" Name="density" format="ascii">
1000.682858856552
1000.36223624216
1000.219008101706
998.6846574462126
999.9677750492758
1000.586088441121
1000.586089052009
998.68465647019
998.0607031444164
1000.219007978266
999.9027113398016
1000.202259656769
997.4460122292355
1000
996.9314680443981
998.360950500986
1000.20225948449
1000.202260826154
1000.416248231725
1000.202259033514
998.3567951177055
1000
1000
1000
1000
1000
1000
999.9027107119615
1000
997.632257765399
1000
998.8732610769863
998.873261995886
1000
998.360954971873
998.0725066165651
1002.507015592586
1000
998.0725066020626
1000
1000
1000
1000
1000
1000
1000
1000
1000
1000
1000
1000
1000
1000
1000
1000
1000
1000
1000
1000
1000
1000
1000
1000
1000
1000
1000
1000
1000
1000
1000
1000
1000
1000
1000
1000
1000
1000
1000.682858326315
998.6846564423917
1000
1000
1000
1000
1013.700949300802
1003.029302951407
1001.601015326984
1000
1000
1000
1000
1000
1000
1000
1000
1000
1000
1000
1000
1000
1000
1000
1000
1000
1000
1000
1000
1000
1000
1000
1000
1000
1000
1000
1000
1000
1000
1000
1000
1000
1000
1000
1000
1000.301261909595
1001.601015210004
1003.029302317732
1013.700948636412
997.4460135623038
1000
1000
1000
1000
1000
1000
1000
1000
1000
1000
1000
1000
1000
1000
1000
1000
1000
1000
1000
1000
1000
1000
1000
1000
1000
1000
1000
1000
1000
1000
999.6451491038604
1000.459275004279
1000
999.9027104688486
1000
1000
1000
999.9027095433107
1000
1000
1000
1000
997.7836039535001
1002.255243767314
1002.25524420427
1000
1000.671757298499
1000
998.3872749459148
1000
1001.303189147257
1000.586088183932
999.1372432119236
999.1372411778106
1000.416248270677
1000
993.3403581068055
999.1931375598166
998.6024668891217
1000.586087598256
1000.671757232719
1000
1001.744561727027
1000
1001.322349600797
999.5025699861559
999.5025714800515
1001.322351091517
1002.072890365735
1001.322351709409
998.9639093046449
1002.124979499288
1000
1000
999.9444787110573
998.9639098766651
999.9444808511474
999.6569135107401
1000
999.6569136967156
1002.124975086931
1002.124975136357
996.5675646792515
1001.303189089166
1000
1000.103856914903
999.6569102441537
998.0607022063963
996.5675630388702
1001.74456326638
999.6569114567267
999.9444812492246
1000
1000.103856220415
999.944483247538
1000
1000
1000.000220134543
1000
1000
1001.468582705459
1000
1000
1000
1000
998.9639109100665
998.356794270406
998.9639099298066
1001.322350117897
999.1372388891526
999.1372367262868
998.6024670545717
1000
998.8732610332074
1002.507010019698
998.873262528768
998.3872759845791
1002.124977032295
1000
997.7835983661919
1000
1000
1000
1000
1000
1000
1000
1000
1000
1000
1000
1000
1000
1000
1000
1000
1000
1000
1000
1000
1000
1000
1000
1000
1000
1000
1000
1000
1000
1000
1000
1000
1000
1000
1000
1000
1000
1000
1000
1000
1000
1013.700951350187
1003.029298319975
1001.601011261147
1000.301261084228
1000
1000
1000
1000
1000
1000
1000
1000
1000
1000
1000
1000
1000
1000
1000
1000
998.6024689246797
1000
1000
1000
1000
999.5025725222354
1000
1000
1000
1000
999.5025743524196
1002.0728931267
996.9314662712303
1001.601010920778
1003.029296925652
1013.700950486335
1000
1000
1000
1000.000220135425
998.0725047168584
998.0725052557632
1000
1000
1000
1000
1000
1000
1000
1000
1000
1000
1000
1000
1000
1000
1000
1000
1000
1000
997.6322589249017
1000
1000
1000
1000
1000
1000
1000
1000
1000
1000
1000
1000
1000
1000
1000
1000
1000
1000
1000
1000
1000
1000
1000
1000
1000
1000
1000
1000
1000
1000
1000
1000.416247007788
1000
1000
1000
1000
1000
1000
1000
1000
1000
1000.000220135852
1000
1000
1000
1000
1000
1000
1000
1000
1000
1000
1000
1000
1000
1000
1000.459272144149
1002.255242927682
1000
1000
1000
1000
1000.416249460567
1002.25524255534
993.3403682770181
996.5675636215917
1000
1000
1000
1000
1000
1000
1000
1000
1000.10385620155
1002.072889687512
997.4460143703387
999.6451520098212
1001.744563226989
1001.468582978509
1001.744562190793
998.6846550794854
997.4460121448074
1002.072891822832
1000
1000
1000
1000
1000
1000
999.1931355165893
1000
1000
1000
999.9677740606591
996.5675639408645
998.602466913752
1000.362235599909
1000.103855374453
1000
1000
1000
1000
1000
1000
1000
1000
1000
1000
1000
1000
1000
1000
1000
1000
1000
1000
1000
1000
1000
1000
1000
1000
1000
1000.000220134487
1000
1000
1000
1000
1000
1000
1000
1000
1000
1000
1000
1000
1000
1000
1000
1000
1000
1000
1000
1000
1000
1000
1000
1000
1000
1000
1000
1000
1000
1000
1000
1000
1000
1000
1000
1000
1000
1000
1000
1000
1000
1000
1000
1000
1000
1000
1000
1000
1000
1000
1000
1000
1000
1000
1000
1000
1000
1000
1000
1000
1000
1000
1000
1000
1000
1000
1000
1000
1000
1000
1000
1000
1000
1000
1000
1000
1000
1000
1000
1000
1000
1000
1000
1000
1000
1000
1000
1000
1000
1000
1000
1000
1000
1000
1000
1000
1000
1000
1000
1000
1000
1000
1000
1000
1000
1000
1000
1000
1000
1000
1000
1000
1000
1000
1000
1000
1000
1000
1000
1000
1000
1000
1000
1000
1000.000220134784
1000
1000
1000
1000
1000
1000
998.6846556842836
1000
1000
1000
1000
996.567563529999
1000
1000
1000
1000
1000
1000
998.6846548651204
1000
1000
1000
1000
1000
1000
1000
1000
1000
1000
1000
1000
1000
1000
1000
1000
1000
1000
1000
1000
1000
1000
1000
1000
1000
996.567564623865
1000.000220135967
1000
1000
1000
1000
1000
1000
1000
1000
1000
1000
1000
1000
1000
1000
1000
1000
1000
1000
1000
1000
1000
1000
1000
1000
1000
1000
1000
1000
1000
1000
1000
1000
1000
1000
1000
1000
1000
1000
1000
1000
1000
1000
1000
1000
1000.170809018648
1000
1000
1000
1000
1000
1038.431431798464
1043.569128355643
1000
1000
1000
1000
1000
1000
1000
1000
1000.13632136498
1043.569128074452
1038.431431703026
1000.17080901659
1000.136321364018
1048.888312107889
1000.245996885231
1000
1000
1000
1000
1000
1000
1000
1038.431431572919
1000.136321364412
1000.170420880295
1000
1000.109934695151
1043.569127973607
1037.033160379262
1000.114227034512
1000
1000
1000
1000.114227035067
1000
1000
1000.24599688365
1000
1000
1000
1000
1000
1000
1001.242887937862
1000
1000
1000.109934695346
1000.051999332948
1000
1000
1000
1000.170420880506
1001.242887941249
1000
1000
1000
1000
1000
1017.947546253818
1000
1038.431431773205
1017.947546105267
1000.170809016434
1032.597458690002
1043.569128097458
1037.033160596556
1000
1000.170809015363
1000
1000
1000
1000
1000.051999333031
1000.245996879436
1043.569128220484
1000.000000603784
1000.109934695829
1000
1000.000000603784
1000
1000
1000.136321364885
1048.888311879365
1029.154074400317
1000
1000
1000
1000.109934696343
1037.033160515647
1029.154074099835
1000
1001.242887943423
1032.597458694274
1000.170420880239
1000
1000.136321363395
1000
1000
1000.000000603784
1043.569127918907
1000.170809015067
1000
1017.947546074262
1000
1032.597458805527
1000
1029.154074449002
1048.888311830471
1038.431431793499
1032.597458786888
1000.136321363125
1038.431431524799
1001.24288793699
1000
1000.114227034305
1000
1000.114227034757
1017.947546236485
1000
1000.170420880641
1000.000000603784
1037.033160320268
1029.154074280296
1000
1000.051999332843
1000
1000
1000.170809017554
1000
1000.245996886311
1000
1000.051999332941
1000
1000.245996870868
1000
1048.88831195736
1048.888311903447
1000
1000
1000
1000
1000
1000
1000
1000
1000
1000
1000
1000
1000
1000
1000
1000
1000
1000
1000
1000
1000
1000
1000
1000
1000
1000
1000
1000
1000
1000
1000
1000
1000
1000
1000
1000
1000
1000
1000
1000
1000
1000
1000
1000
1000
1000
1000
1000
1000
1000
1000
1000
1000
1000
1000
1000
1000
1000
1000
1000
1000
1000
1000
1000
1000
1000
1000
1000
1000
1000
1000
1000
1000
1000
1000
1000
1000
1000
1000
1000
1000
1000
1000
1000
1000
1000
1000
1000
1000
1000
1048.888311960856
1000.245996872244
        </DataArray>
        <DataArray type="Float64" Name="density_prev" format="ascii">
1000.907372114131
1000.642785739242
1000.543847746051
998.7592474703499
1000.141168700049
1000.564903240773
1000.564903862928
998.7592468060114
997.7939016873502
1000.543847766197
999.8323865146644
1000.171717583999
997.5431248159153
1000
996.9520112935855
998.3283844204788
1000.171717526515
1000.171718816345
1000.397779284716
1000.17171696238
998.4739230437044
1000
1000
1000
1000
1000
1000
999.8323858938013
1000
997.5071270645124
1000
998.8856390804663
998.8856399465647
1000
998.3283892102154
998.0733334673279
1002.444726722172
1000
998.0733334138986
1000
1000
1000
1000
1000
1000
1000
1000
1000
1000
1000
1000
1000
1000
1000
1000
1000
1000
1000
1000
1000
1000
1000
1000
1000
1000
1000
1000
1000
1000
1000
1000
1000
1000
1000
1000
1000
1000
1000.907371567479
998.7592465548486
1000
1000
1000
1000
1013.74266168427
1003.064673247286
1001.636620475512
1000
1000
1000
1000
1000
1000
1000
1000
1000
1000
1000
1000
1000
1000
1000
1000
1000
1000
1000
1000
1000
1000
1000
1000
1000
1000
1000
1000
1000
1000
1000
1000
1000
1000
1000
1000
1000.316024807349
1001.636620359784
1003.064672620599
1013.742661023222
997.5431261510606
1000
1000
1000
1000
1000
1000
1000
1000
1000
1000
1000
1000
1000
1000
1000
1000
1000
1000
1000
1000
1000
1000
1000
1000
1000
1000
1000
1000
1000
1000
999.6646683529749
1000.575513619579
1000
999.8323856212439
1000
1000
1000
999.8323847238605
1000
1000
1000
1000
997.6677922541786
1002.143831378655
1002.143831509315
1000
1001.016946047236
1000
998.4052274096829
1000
1001.567051567994
1000.564903015881
999.0837254006125
999.0837232139608
1000.397779134277
1000
993.653041827343
999.1667509192289
998.694208784394
1000.564902345698
1001.016946239213
1000
1001.690793498961
1000
1001.360703589321
999.4891838897818
999.489185193523
1001.360705015923
1002.052865708583
1001.360705657728
998.773301194289
1002.259062525384
1000
1000
999.9566736117097
998.7733018667158
999.9566758167268
999.5199119117023
1000
999.5199121315176
1002.259058645669
1002.259058661063
996.6915429634779
1001.567051904289
1000
1000.206518734493
999.5199085109807
997.7939007471039
996.691541205382
1001.690795283053
999.5199097861371
999.9566762861468
1000
1000.206518047583
999.9566782700441
1000
1000
1000.000227270617
1000
1000
1001.219550287268
1000
1000
1000
1000
998.7733027955643
998.4739220560803
998.7733017271898
1001.360704094128
999.083721634575
999.0837192234246
998.69420895364
1000
998.8856391217214
1002.444720932145
998.8856405429765
998.4052286512491
1002.25906026009
1000
997.6677870533716
1000
1000
1000
1000
1000
1000
1000
1000
1000
1000
1000
1000
1000
1000
1000
1000
1000
1000
1000
1000
1000
1000
1000
1000
1000
1000
1000
1000
1000
1000
1000
1000
1000
1000
1000
1000
1000
1000
1000
1000
1000
1013.742663702591
1003.064668622858
1001.636616388295
1000.316023980952
1000
1000
1000
1000
1000
1000
1000
1000
1000
1000
1000
1000
1000
1000
1000
1000
998.6942110735541
1000
1000
1000
1000
999.4891866259375
1000
1000
1000
1000
999.4891883032657
1002.052868498867
996.9520093107386
1001.636616049157
1003.06466724406
1013.742662861549
1000
1000
1000
1000.000227271501
998.073331862404
998.0733324133616
1000
1000
1000
1000
1000
1000
1000
1000
1000
1000
1000
1000
1000
1000
1000
1000
1000
1000
997.5071280513095
1000
1000
1000
1000
1000
1000
1000
1000
1000
1000
1000
1000
1000
1000
1000
1000
1000
1000
1000
1000
1000
1000
1000
1000
1000
1000
1000
1000
1000
1000
1000
1000.397777811382
1000
1000
1000
1000
1000
1000
1000
1000
1000
1000.000227271939
1000
1000
1000
1000
1000
1000
1000
1000
1000
1000
1000
1000
1000
1000
1000.57551070595
1002.143829247666
1000
1000
1000
1000
1000.397780423345
1002.143828498576
993.6530542762235
996.6915418632266
1000
1000
1000
1000
1000
1000
1000
1000
1000.206518101235
1002.052865296712
997.5431269928484
999.6646716118854
1001.690794950647
1001.219550474917
1001.690794043986
998.759245028779
997.5431247559195
1002.052867077445
1000
1000
1000
1000
1000
1000
999.1667486252161
1000
1000
1000
1000.1411675984
996.691542137654
998.6942085510034
1000.642785027261
1000.206517079593
1000
1000
1000
1000
1000
1000
1000
1000
1000
1000
1000
1000
1000
1000
1000
1000
1000
1000
1000
1000
1000
1000
1000
1000
1000
1000.000227270556
1000
1000
1000
1000
1000
1000
1000
1000
1000
1000
1000
1000
1000
1000
1000
1000
1000
1000
1000
1000
1000
1000
1000
1000
1000
1000
1000
1000
1000
1000
1000
1000
1000
1000
1000
1000
1000
1000
1000
1000
1000
1000
1000
1000
1000
1000
1000
1000
1000
1000
1000
1000
1000
1000
1000
1000
1000
1000
1000
1000
1000
1000
1000
1000
1000
1000
1000
1000
1000
1000
1000
1000
1000
1000
1000
1000
1000
1000
1000
1000
1000
1000
1000
1000
1000
1000
1000
1000
1000
1000
1000
1000
1000
1000
1000
1000
1000
1000
1000
1000
1000
1000
1000
1000
1000
1000
1000
1000
1000
1000
1000
1000
1000
1000
1000
1000
1000
1000
1000
1000
1000
1000
1000
1000
1000
1000
1000
1000
1000
1000
1000
1000
1000
1000
1000
1000
1000
1000
1000
1000
1000
1000
1000.955060489357
999.6655266898474
998.6334968855394
998.3569808740291
1000
1000
998.992628385559
999.7453900687289
1000.087719553942
1000.087719412357
1000
1000
1000
1000
1000
1000
999.5538822930849
999.7132180269232
1000
1000
1000
1000
1000
1000
1000
1000
1000
1000.165091461209
1000.148183146491
1000.148183146904
1000.16478741384
1000.134565968618
1000.170076111812
1000
1001.825056113816
1000
1000
999.7611003969679
1000
1000
1000
1001.452218468523
1000.562559800649
1000
1000.1249018107
1000.402822473688
1000.645725841462
1000.491975008492
1000
1000.238649215381
1000.491975016752
1000
1001.463774709888
999.7365927506007
1001.737243580372
1000
999.5260213092758
1000.270493209842
999.4657377664777
1000
1000
1000
1000
1000
1000
999.7941146372115
1000.28977342314
999.6894817643387
1000.146177513418
1000
999.9806317742374
1000
999.2703463657084
1001.274789081308
1000.334934434584
1000.115679820098
1000
1000
998.757705429144
999.8248083463151
1000.361864883781
999.8284518111756
1000
1000
1000
1000
1000
1000
1000
1000
1000.066991685726
999.9791601460107
1000
1000
1000
1000
1000
1000
1000
1000.224442505676
1000
1000
1000.666179963249
1000.087163511428
1000
1000
999.3572253445353
1000
1028.102423339179
1000
1000
1000
1000
1000
1000
1000
1000.354074194403
1000
1001.224738652065
1000
1000
999.6176032944661
1000
1000.64289272866
997.6497772312173
1000
1000
1000
1000
1000
1000
1000
1000
1000
1000
1000
1000
999.9320768396168
1000
1000.055868745848
999.7910946127853
1000
1000
1000
1000
1000
1000
1000
1000
1000
1000
1000
1000
1000.874922184204
1000
1001.118435628348
999.6388894201683
1000
1000.279582140217
1000
1000
1000
1000
1000
1000
1000
1014.335708497341
1025.149927455736
1000
1000.336604698696
1001.801737435845
1000.110516337395
1000.545853410055
999.7164495288142
1000.545853408787
1000.153038735783
1000
1000.109927227316
1000
1000.206748170326
1000
1000
1000
1000
1000
1000
1000
1000.000000603784
1000.109927228575
1000.114227035067
1000
1000.404577200874
1001.010949499051
999.9077419974354
1000.294305072212
999.8357951547476
999.7767612937228
1000.200512642441
999.9325889718682
1001.076776060307
1000
1000.266731614724
1000
1000
1000
1000
1000
1000
1000
1000
1000
1000
1000.224692435266
1001.039314132794
1000.224692435266
1001.039314132794
1001.046540635
1000.016697248868
1000.457444477299
1000.457444479155
1000.457444477299
1000.457444479155
999.8865114511442
1000.039465296647
1000.457444477299
1000.457444479155
999.8865114511442
1000.039465296647
1000.623135999285
1000
1000
1000
1000
1000
1000
1000
1000
1000
1000
1000
1000
1000
1000
1000
1000
1000
1000
1000
1000
1000
1000
1000
1000
1000
1000
1000
1000
1000
1000
1000
1000
1000
1000
1000
1000
1000.234624163038
1000
1000.820904722472
1000
1000.820904722472
1000
1000.820904722472
1000
999.6899537323309
1000
1000.820904722472
1000
999.6899537323309
1000
1000.820904722472
1000
999.6899537323309
999.6211325070395
1000.820904722472
1000
999.6899537323309
999.6211325070395
1000
1000
999.6899537323309
999.6211325070395
1000
1000
1000
999.6211325070395
1000
1000
1000
1000
1000
1000
0
0
1000
0
0
0
0
0
0
        </DataArray>
        <DataArray type="Float64" Name="pressure" format="ascii">
1157.387802938235
819.2470609961449
692.9422818994711
-1572.46157974995
179.6525726608188
719.8155644208196
719.8163585314323
-1572.462418563374
-2787.807162272895
692.9423076104625
-213.108943800477
218.5493898904807
-3102.376367172685
0
-3841.981804022412
-2115.778468762519
218.5493166919617
218.5509591375406
506.6074258670417
218.5485983329503
-1932.412045589488
0
0
0
0
0
0
-213.1097327880381
0
-3147.492257312932
0
-1412.815189471672
-1412.814095079571
0
-2115.772436735928
-2436.734629443049
3132.76558800592
0
-2436.734696626902
0
0
0
0
0
0
0
0
0
0
0
0
0
0
0
0
0
0
0
0
0
0
0
0
0
0
0
0
0
0
0
0
0
0
0
0
0
0
1157.387103764545
-1572.462735689025
0
0
0
0
18219.10016679168
3934.505989977727
2092.145960795319
0
0
0
0
0
0
0
0
0
0
0
0
0
0
0
0
0
0
0
0
0
0
0
0
0
0
0
0
0
0
0
0
0
0
0
0
402.3870866575531
2092.145812129874
3934.505178017206
18219.09925412943
-3102.374693657272
0
0
0
0
0
0
0
0
0
0
0
0
0
0
0
0
0
0
0
0
0
0
0
0
0
0
0
0
0
0
-426.1365278794453
733.3589546008824
0
-213.1100791516727
0
0
0
-213.1112195388631
0
0
0
0
-2946.055469924219
2744.706267200476
2744.706435559422
0
1297.580150658377
0
-2018.982750607219
0
2002.795467943244
719.8152773715829
-1162.366608901891
-1162.369375219358
506.6072340405339
0
-7921.660809908044
-1057.305429364588
-1654.56531042355
719.8144219575348
1297.580396360122
0
2161.748614988219
0
1737.992364253376
-648.799046703112
-648.7973933291765
1737.994193858033
2627.527020849069
1737.995016967268
-1554.716182466596
2893.235226510628
0
0
-55.10704623574205
-1554.715333369119
-55.10424202808962
-609.8268984093127
0
-609.8266195931939
2893.23022396727
2893.230243817454
-4167.047514874977
2002.795899772375
0
262.8691547966802
-609.8312119197898
-2787.808342587589
-4167.049707267419
2161.75090759982
-609.8295944982483
-55.10364504817157
0
262.8682799158221
-55.10112204736843
0
0
0.2891043870979021
0
0
1557.041046175897
0
0
0
0
-1554.714160478367
-1932.413290457095
-1554.715509553598
1737.993011663351
-1162.371373288902
-1162.374423617949
-1654.565096812114
0
-1412.815137342177
3132.758113985486
-1412.813341460364
-2018.981186299877
2893.232305619053
0
-2946.061993677531
0
0
0
0
0
0
0
0
0
0
0
0
0
0
0
0
0
0
0
0
0
0
0
0
0
0
0
0
0
0
0
0
0
0
0
0
0
0
0
0
0
18219.10295334739
3934.499998379253
2092.140710303961
402.3860334271071
0
0
0
0
0
0
0
0
0
0
0
0
0
0
0
0
-1654.562421191336
0
0
0
0