<VTKFile type="PolyData" version="1.0" byte_order="LittleEndian" header_type="UInt64">
  <PolyData>
    <Piece NumberOfPoints="2776" NumberOfVerts="2776">
      <Points>
        <DataArray type="Float64" Name="Points" NumberOfComponents="3" format="ascii">
0.06526153657025521 0.07471415115389185 0.009568286505959943
0.1130561007684685 0.1349039769755503 0.07939360293370544
0.05694389923032641 0.1349039769754366 0.07939360293187203
0.04757290999593371 0.1102352624875744 0.07839488863235854
0.05976473751152461 0.1224270900063647 0.07839488863087962
0.08126460141642126 0.07464678737560397 0.0170005953316414
0.1161865637940308 0.1490503154634631 0.01923257722099866
0.1046812932505266 0.144197228833769 0.01339216850149172
0.0477523288061835 0.07504088181218113 0.01857949936004959
0.0994121762776259 0.1421923982709753 0.01057285015653343
0.08768935299546045 0.1412758122773558 0.006927541985552079
0.03590057903939982 0.1048546813927969 0.07688226608088138
0.104854681393208 0.1340994209597485 0.07688226608207713
0.04167037655884515 0.1283296234410357 0.0770999738686237
0.03373714775001237 0.1204832483638115 0.07742995308559611
0.04951675163935652 0.136262852250935 0.07742995308553059
0.06244450550105687 0.1512228493107 0.07917720639513118
0.01877715068548939 0.1075554944989553 0.07917720639571557
0.06630062812032705 0.1234574097890963 0.07534663748973201
0.04654259021314559 0.1036993718808034 0.07534663749039562
0.1057333024374391 0.1449324120398712 0.02587539508970037
0.1036993718802939 0.1234574097854809 0.07534663749250212
0.07411113058698138 0.1470159159708375 0.02294915746200156
0.09588886940343701 0.1470159159570586 0.02294915747108364
0.1075554944977556 0.1512228493083219 0.07917720639245873
0.04491255076692441 0.151010766479286 0.07972122350884746
0.0886721437201563 0.1464387249094961 0.01964169253565675
0.08132785627133171 0.1464387249367706 0.0196416925431002
0.01898923351909973 0.1250874492294594 0.07972122350935767
0.0320921679221854 0.1300262325829676 0.07793367543106157
0.03997376741643603 0.1379078320796633 0.07793367543141502
0.05245836831649121 0.1175416316824459 0.0748890181958419
0.05957295083420516 0.07463328857115231 0.003257426033140048
0.04565637068711448 0.08110219807157455 0.07418428619374223
0.04565637068659696 0.08889780192405576 0.07418428619146336
0.08889780192418641 0.124343629311474 0.07418428619503477
0.07392971441101512 0.1241089095300029 0.0737596981226786
0.07294693301046137 0.134542359654234 0.07523991678824242
0.03545764034424259 0.09705306698798813 0.07523991678807677
0.04589109047107145 0.09607028558852718 0.0737596981159795
0.09607028558650271 0.1241089095275381 0.07375969811915632
0.1159457856421361 0.1532190944638205 0.02605997840504243
0.1070647599134064 0.1506919035283112 0.02105446578965226
0.09705306698701781 0.1345423596573139 0.07523991678636135
0.1010796412585303 0.1494570558196996 0.01926781229804758
0.09108686631957717 0.1446227390823745 0.0130600389193575
0.08210600869432177 0.08789399130772671 0.07429238411752051
0.08210600869061535 0.08210600869126547 0.07429238411592508
0.08212335070245849 0.07503185695603799 0.071994313154869
0.03561168519154752 0.1509564854997364 0.07957588291975989
0.0190435144985744 0.1343883148084971 0.07957588291783174
0.06503148614419048 0.07476745378470122 0.02107286448253818
0.03488762833991439 0.08899611402766257 0.07510605543394724
0.03925241746021573 0.08111617847455539 0.03442806869109523
0.06026313173600717 0.1163754007851641 0.07309667380502255
0.0536245992165588 0.1097368682626284 0.07309667380507164
0.08899611402736515 0.135112371661388 0.07510605543236118
0.03488762833943003 0.08100388597296615 0.07510605543118178
0.07134346071558001 0.1509055215929796 0.07747739435306603
0.01909447840294744 0.09865653928458772 0.07747739434933287
0.09865653928530546 0.1509055215956062 0.0774773943456111
0.1165070161907278 0.1523733040574243 0.04603874876553302
0.03925241745916401 0.08888382152539868 0.0344280686902738
0.06730110125935573 0.1026988987382801 0.07129914204610341
0.02716616675203126 0.08053826179330173 0.04189784714806741
0.02716616676182998 0.08946173820735803 0.04189784714296961
0.04008013370001406 0.1215890161055475 0.03807062695418682
0.07364908892519902 0.08155972552048688 0.02794397649646721
0.07364908892692228 0.08844027448009001 0.0279439764992556
0.08155972551732669 0.09635091107188674 0.02794397649950495
0.1147220533804309 0.1468406298884121 0.02129517423054234
0.05868598316538808 0.1113140168364887 0.03237846491975378
0.05686439752102816 0.1291050509241203 0.05710763224066437
0.03001004606802719 0.1320813322553445 0.06546739810776978
0.03791866774409817 0.1399899539291233 0.06546739810909728
0.08060242886248109 0.08060242886269112 0.02775999047883941
0.08060242886092506 0.08939757113618253 0.02775999048045482
0.02848649197617854 0.1242653786698744 0.04426707225624299
0.0646041870833895 0.129802817191711 0.05529889387836152
0.08951842105263157 0.1618131578947369 0.007911538461538463
0.09855526315789473 0.1618131578947369 0.007911538461538463
0.1075921052631579 0.1618131578947369 0.007911538461538463
0.116628947368421 0.1618131578947369 0.007911538461538463
0.0821233507084294 0.094968143042581 0.07199431315512642
0.07503185695629361 0.08212335070129338 0.0719943131520923
0.07503185695612989 0.08787664929347683 0.07199431315327123
0.04834444337483568 0.1116328997342562 0.03309259723857752
0.05642267820742508 0.1368876797928215 0.07437772523085502
0.05836710026105783 0.121655556629301 0.03309259723050389
0.03311232020920844 0.1135773217932795 0.0743777252271401
0.1135773217927074 0.1368876797928897 0.0743777252303217
0.107196585575615 0.1526674072466927 0.04185650030046299
0.08183940610439272 0.1042168975846223 0.07080027199988906
0.06578310241622397 0.08816059389681827 0.07080027199628265
0.0178169284746207 0.1256611985936755 0.05100789178202442
0.03219151721055766 0.1221677704420252 0.07110343126608386
0.04146998401241164 0.1285300159871522 0.05890259272596256
0.1059816828362933 0.1417590864404922 0.0154098946581832
0.01809333837923881 0.09827709861438326 0.04851546991375959
0.06578310241535611 0.08183940609929473 0.0708002719983709
0.07419143295983772 0.1456642160136724 0.01835112456137855
0.0958085670081619 0.1456642160489409 0.01835112459731011
0.08820084885446734 0.1427238753017573 0.01423371306895942
0.08179915114488413 0.1427238753191229 0.01423371307876735
0.09835061982394906 0.1523404066390667 0.03897570255305208
0.07164938016700396 0.1523404066431892 0.0389757025514454
0.02993749923916795 0.1400625007622639 0.07660662453242642
0.08053956333611306 0.1506575002592616 0.07627370489465288
0.0193424997412807 0.08946043666220183 0.07627370489022743
0.05935458460325421 0.1037830685648138 0.02844917393980805
0.01934249974240821 0.0805395633378673 0.0762737048918415
0.06621693143281322 0.1106454153972651 0.02844917393927657
0.08963510731960743 0.1516170065975163 0.03668443540119216
0.04794044898774029 0.122059551012616 0.03429440913426033
0.08036489267531806 0.151617006595537 0.03668443540309205
0.05331358708898264 0.1510961196027112 0.06910171806377566
0.044891643806723 0.1510621627665086 0.07322372703037029
0.08078456076725438 0.1295418663621346 0.05237495164098837
0.05488908537087397 0.1404573980410077 0.06145202775100538
0.06515213199062447 0.122755247911105 0.03082441405663726
0.08946043666194459 0.1506575002621494 0.07627370488917218
0.05150986461632893 0.1263525008961015 0.07125468251390565
0.04724475208692814 0.1048478680017201 0.03082441405754678
0.04364749910417023 0.1184901353813309 0.07125468251446812
0.07509591907773576 0.1034902276609543 0.06853338791949015
0.07231019606719299 0.1296264325343923 0.05248864823524717
0.06650977234285679 0.09490408092337607 0.06853338791572118
0.08951842105263157 0.1618131578947369 0.01667307692307693
0.06442795421355621 0.1380579129253904 0.07227235375390804
0.03194208707158239 0.1055720457842658 0.07227235375490622
0.1055720457824734 0.1380579129262506 0.07227235375685685
0.06742509932814225 0.1176046029378702 0.06876625375254646
0.05239539706489479 0.1025749006694337 0.06876625374883506
0.06447004597813692 0.1055299540194706 0.02590312754155983
0.09855526315789473 0.1618131578947369 0.01667307692307693
0.1025749006672783 0.11760460293694 0.06876625375223566
0.07432913322470804 0.09567086677565578 0.06651159268426395
0.07420155970895111 0.1182580924887029 0.06802866197454087
0.0517419075141825 0.09579844029007768 0.06802866196846195
0.09579844028873567 0.1182580924879367 0.06802866197148491
0.05330830472247616 0.1514320858637171 0.0760519098030695
0.1075921052631579 0.1618131578947369 0.01667307692307693
0.01856791413555766 0.1166916952769901 0.07605190980045527
0.1166916952771003 0.1514320858630647 0.0760519098061757
0.05190446107235837 0.08148546688046907 0.06751673413980681
0.08148546688198129 0.1180955389258437 0.06751673414017381
0.116628947368421 0.1618131578947369 0.01667307692307693
0.0885145331176341 0.1180955389267577 0.06751673413990168
0.05190446107761911 0.08851453311928768 0.0675167341332857
0.07265956849475919 0.1375741293897444 0.07086540510215264
0.03242587060669209 0.09734043150486012 0.07086540510211571
0.09734043150399398 0.1375741293949861 0.07086540510064597
0.07172290139495999 0.1519066616258416 0.04851546991694432
0.05850108382078923 0.08138196094170259 0.02530869681229195
0.0318914982553971 0.08933545968402154 0.06990004343964354
0.03189149825477661 0.08066454031465653 0.06990004343551096
0.08933545968654487 0.1381085017480538 0.0699000434378183
0.04783222955885193 0.1378084827890048 0.07110343126441669
0.05850108381891003 0.08861803906045536 0.02530869681119648
0.08138196093921742 0.1114989161783968 0.0253086968100336
0.01879565187885776 0.08058043166395262 0.04644418912023069
0.0586503460104326 0.1177067728394185 0.06655334116754183
0.05229322715591662 0.1113496539904461 0.06655334116784853
0.03051012281030517 0.131498944381958 0.07218886102669468
0.03850105562036288 0.1394898771901061 0.0721888610262514
[...]
      <PointData>
        <DataArray type="UInt64" Name="type" format="ascii">
1
1
1
1
1
1
1
1
1
1
1
1
1
1
1
1
1
1
1
1
1
1
1
1
1
1
1
1
1
1
1
1
1
1
1
1
1
1
1
1
1
1
1
1
1
1
1
1
1
1
1
1
1
1
1
1
1
1
1
1
1
1
1
1
1
1
1
1
1
1
1
1
1
1
1
1
1
1
1
0
0
0
0
1
1
1
1
1
1
1
1
1
1
1
1
1
1
1
1
1
1
1
1
1
1
1
1
1
1
1
1
1
1
1
1
1
1
1
1
1
1
1
1
1
1
1
1
0
1
1
1
1
1
1
0
1
1
1
1
1
1
0
1
1
1
1
0
1
1
1
1
1
1
1
1
1
1
1
1
1
1
1
1
1
1
1
1
1
1
1
1
1
1
1
1
1
1
1
1
1
1
1
1
1
1
1
1
0
0
0
0
1
1
1
1
1
1
1
1
1
1
1
1
1
1
0
0
0
0
1
1
1
1
0
0
0
0
1
1
1
1
0
0
0
0
1
1
1
1
0
0
0
0
1
1
1
1
0
0
0
0
1
1
1
1
0
0
0
0
1
1
1
1
1
1
1
1
1
1
1
1
1
1
1
1
1
1
1
1
1
1
1
1
1
1
1
1
1
1
1
1
1
0
0
1
1
1
1
1
1
1
1
1
1
1
1
1
1
1
1
1
1
1
1
1
1
1
1
1
1
1
1
1
1
1
1
1
1
1
1
1
1
1
1
1
1
1
1
1
1
1
1
1
1
1
1
1
1
1
1
1
1
1
1
1
1
1
1
1
1
1
1
1
1
1
1
1
1
1
1
1
1
1
1
1
1
1
1
1
1
1
1
1
1
1
1
1
1
1
1
1
1
1
1
1
1
1
1
1
1
1
1
1
1
1
1
1
1
1
1
1
1
1
1
1
1
1
1
1
1
1
1
1
0
0
0
0
1
1
1
1
1
1
1
1
1
0
0
1
1
1
1
0
0
1
1
1
1
0
0
1
1
1
1
1
1
0
1
1
1
1
1
1
1
1
1
1
1
1
1
1
1
1
1
1
1
1
1
1
1
1
0
0
1
1
1
1
1
0
0
1
1
0
1
0
0
1
1
1
1
1
0
0
1
1
0
0
1
1
1
1
1
1
1
1
1
1
1
0
1
0
1
1
1
1
1
1
1
1
1
1
1
1
1
1
1
1
1
1
1
1
1
1
1
1
1
1
1
1
1
1
1
1
1
1
1
1
1
1
1
1
1
1
1
1
1
1
1
1
1
1
1
1
1
1
1
0
1
0
1
1
1
1
0
1
1
1
0
1
1
0
0
1
1
1
1
1
1
1
1
0
0
0
0
0
0
0
1
0
1
1
1
1
1
1
1
1
1
1
1
1
1
1
1
0
0
0
0
0
0
0
1
1
1
1
1
1
1
1
1
1
1
1
1
1
1
1
1
1
1
1
1
1
1
1
1
1
1
1
1
1
1
1
1
1
1
1
1
1
1
1
1
1
1
1
1
1
1
1
1
1
1
1
1
1
1
1
1
1
1
1
1
1
1
1
1
1
1
1
1
1
1
1
1
1
1
1
1
1
1
1
1
1
1
1
1
1
0
0
0
0
0
0
0
0
0
0
0
0
1
0
0
0
0
0
0
0
0
0
0
0
0
0
0
0
0
0
0
0
0
0
0
0
0
0
1
0
0
0
0
0
0
0
1
1
1
1
1
1
0
0
0
0
0
0
0
0
0
0
0
0
0
0
0
0
0
0
0
0
0
0
0
0
0
0
0
0
0
0
0
0
0
0
0
0
0
0
0
0
0
0
0
0
0
0
0
0
0
1
0
0
0
0
0
0
0
1
1
1
1
0
0
0
0
1
1
1
0
0
0
0
1
1
1
1
1
1
1
1
1
1
1
1
1
1
1
1
1
1
1
1
1
1
1
1
1
1
1
1
1
0
0
0
0
0
0
0
1
1
1
1
1
1
1
1
1
1
1
1
1
1
1
1
1
1
1
1
1
1
1
1
1
1
1
1
1
1
1
1
1
1
1
1
1
1
1
1
1
1
1
1
1
1
1
1
1
1
1
1
1
1
1
1
1
1
1
1
1
1
1
1
1
1
1
1
1
1
1
1
1
1
1
1
1
1
1
1
1
1
1
1
1
1
1
1
1
1
1
1
1
1
1
1
1
1
1
1
1
1
1
1
1
1
1
1
1
1
1
1
1
1
1
1
1
1
1
1
1
0
0
0
0
0
0
1
1
1
1
1
1
0
0
1
0
0
0
0
1
0
1
1
1
0
0
1
1
1
1
0
1
0
1
1
1
1
1
0
1
1
1
1
1
0
1
1
1
0
1
1
1
1
1
0
1
0
0
1
1
0
1
1
1
0
0
0
0
1
1
0
1
1
0
0
1
0
0
0
1
0
0
1
1
0
1
1
1
0
0
0
0
1
0
0
0
0
0
1
1
1
1
0
1
0
1
0
0
1
1
1
1
1
1
1
1
1
1
1
1
1
0
0
1
1
1
1
1
0
1
0
1
1
1
1
1
0
0
1
1
1
1
1
1
1
1
1
1
1
1
1
1
1
1
1
1
1
1
0
0
1
1
1
0
0
0
0
0
0
0
0
0
0
0
0
0
0
0
0
0
0
0
0
0
0
0
1
1
1
1
1
1
1
1
1
1
1
1
1
1
1
1
1
1
1
1
1
1
1
1
1
1
1
1
1
1
1
1
0
1
1
0
1
1
1
1
1
1
1
1
1
1
1
1
1
1
1
1
1
1
1
1
1
1
1
1
1
1
1
1
1
0
0
1
1
1
1
1
1
1
1
1
1
1
0
0
1
1
1
1
1
0
1
1
1
1
1
1
1
1
1
1
1
1
1
1
0
1
1
1
1
0
1
1
1
1
1
1
1
1
1
1
1
1
1
1
1
1
1
1
1
1
1
1
1
1
1
1
1
1
1
1
1
1
1
1
1
1
1
1
1
1
1
1
1
1
1
1
1
1
1
1
1
1
1
1
1
0
1
1
1
1
1
1
0
0
0
0
1
0
0
0
0
0
0
0
1
1
1
1
1
1
1
1
1
1
1
1
1
1
1
1
1
1
1
1
1
1
1
1
1
1
1
1
1
1
1
1
1
1
1
1
1
1
1
1
1
1
1
1
1
1
1
1
1
1
1
1
1
1
1
1
1
1
1
1
1
1
1
1
1
1
1
1
1
1
1
1
1
1
1
1
1
1
1
1
1
1
1
1
1
1
1
1
1
1
1
1
1
1
1
1
1
1
1
1
1
1
1
1
1
1
0
0
0
1
1
1
1
1
1
1
1
1
1
1
1
1
0
0
1
0
0
0
0
1
1
1
1
1
0
0
0
0
0
0
0
0
0
0
0
0
0
0
0
0
0
0
1
1
1
1
1
1
1
1
1
1
1
1
1
1
1
1
1
1
1
1
1
1
1
1
1
1
1
1
1
1
1
1
1
1
1
1
1
1
1
1
1
1
1
1
1
1
1
1
1
1
1
1
1
1
1
1
1
1
1
1
1
1
1
1
1
1
1
1
1
1
1
1
1
1
1
1
1
1
1
1
1
1
1
1
1
1
1
1
1
1
1
1
1
1
1
1
1
1
1
1
1
1
1
1
1
1
1
1
1
1
1
1
1
1
1
1
1
1
1
1
1
1
1
1
1
1
1
1
1
1
1
1
1
1
1
1
1
1
1
1
1
1
1
1
1
1
1
1
1
1
1
1
1
1
1
1
1
1
1
1
1
1
1
1
1
1
1
1
1
1
1
1
1
1
1
1
1
1
1
1
1
1
1
1
1
1
1
1
1
1
1
1
1
1
1
1
1
1
1
1
1
1
1
1
1
1
1
1
1
1
1
1
1
1
1
1
1
1
1
1
1
1
1
1
1
1
1
1
1
1
1
1
1
1
1
1
1
1
1
1
1
1
1
1
1
1
1
1
1
1
1
1
1
1
1
1
1
1
1
1
1
1
1
1
1
1
1
1
1
1
1
1
1
1
1
1
1
1
1
1
1
1
1
1
1
1
1
1
1
1
1
1
1
1
1
1
1
1
1
1
1
1
1
1
1
1
1
1
1
1
1
1
1
1
1
1
1
1
1
1
1
1
1
1
1
1
1
1
1
1
1
1
1
1
1
1
1
1
1
1
1
1
1
1
1
1
1
1
1
1
1
1
1
1
1
1
1
1
1
1
1
1
1
1
1
1
1
1
1
1
1
1
1
1
1
1
1
1
1
1
1
1
1
1
1
1
1
1
1
1
1
1
1
1
1
1
1
1
1
1
1
1
1
1
1
1
1
1
1
1
1
1
1
1
1
1
1
1
1
1
1
1
1
1
1
1
1
1
1
1
1
1
1
1
1
1
0
0
0
0
0
0
1
1
1
1
1
1
1
1
1
1
1
1
1
1
1
1
1
0
0
0
0
0
0
0
0
0
1
1
1
1
1
1
1
1
1
1
1
1
1
1
1
1
1
1
1
1
1
1
1
1
1
1
1
1
1
1
1
1
1
1
1
1
1
1
1
1
1
1
1
1
1
1
1
1
1
1
1
1
1
1
1
1
1
1
1
1
1
1
1
1
1
1
1
1
1
1
1
1
1
1
1
1
1
1
1
1
1
1
1
1
1
1
1
1
1
1
1
1
1
1
1
1
1
1
1
1
1
1
1
1
1
1
1
1
1
1
1
1
1
1
1
1
1
1
1
1
1
1
1
1
1
1
1
1
1
1
1
1
1
1
1
1
1
1
1
1
1
1
1
1
1
1
1
1
1
1
1
1
1
1
1
1
1
1
1
1
1
1
1
1
1
1
1
1
1
1
1
1
1
1
1
1
1
1
1
1
1
1
1
1
1
1
1
1
1
1
1
1
1
1
1
1
1
1
1
1
1
1
1
1
1
1
1
1
1
1
1
1
1
1
1
1
1
1
1
1
1
1
1
1
1
1
1
1
1
1
1
1
1
1
1
1
1
1
1
1
1
1
1
1
1
1
1
1
1
1
1
1
1
1
1
1
1
1
1
1
1
0
0
1
1
1
1
1
1
0
1
1
1
0
0
0
1
1
1
1
1
1
1
1
1
1
1
1
1
1
1
1
1
1
1
1
1
1
1
1
1
1
1
1
1
1
1
1
1
1
1
1
1
1
1
1
1
1
1
1
1
1
1
1
1
1
1
1
1
1
1
0
0
0
0
0
0
1
0
0
1
0
0
0
0
0
0
0
0
0
0
0
0
0
1
1
1
1
1
1
1
1
1
1
1
1
1
1
1
1
1
1
1
1
1
1
1
1
1
1
1
1
1
1
1
1
1
1
1
1
1
1
1
1
1
1
1
1
1
1
1
1
1
1
1
1
1
1
1
1
1
1
1
1
1
1
1
1
1
1
0
1
1
0
1
1
0
1
1
0
0
0
0
0
0
0
0
0
1
1
1
1
0
1
1
1
0
1
1
1
1
1
1
1
1
0
1
1
1
1
1
1
1
1
1
1
1
1
1
1
1
1
1
1
1
1
1
1
1
1
1
1
1
1
1
1
1
1
1
1
1
1
1
1
1
1
1
1
1
1
1
1
1
1
1
1
1
0
1
0
1
1
0
0
1
0
0
0
0
1
0
0
1
0
0
0
0
1
0
0
1
0
0
0
0
0
0
0
0
0
0
0
1
1
1
1
1
1
1
1
1
1
1
1
1
1
1
1
1
1
1
1
1
1
1
1
1
1
1
1
0
1
1
1
0
1
1
1
1
0
1
1
1
1
1
0
1
1
1
1
1
1
1
1
0
1
1
1
0
1
1
1
1
1
1
0
0
0
0
0
0
1
0
0
0
1
0
1
0
0
0
0
1
0
1
0
0
0
1
0
0
0
0
0
0
1
1
1
0
1
0
0
0
1
0
0
1
0
0
0
0
0
0
0
0
0
0
0
0
0
0
0
0
0
0
0
0
0
0
0
0
0
0
0
0
0
0
0
0
0
0
0
0
0
1
1
0
0
0
0
0
0
1
1
1
1
0
0
0
0
1
0
0
0
1
0
1
0
1
0
0
0
0
0
0
0
0
1
1
0
1
0
1
0
0
0
0
1
0
1
1
1
0
0
0
0
1
1
1
1
1
1
1
0
1
1
0
0
1
0
0
1
0
1
0
0
0
0
0
0
0
0
0
0
1
1
1
1
1
1
1
1
1
1
1
1
0
1
0
1
0
1
0
0
0
0
1
0
0
1
1
1
1
0
0
0
0
0
0
0
0
0
        </DataArray>
        <DataArray type="Float64" Name="density" format="ascii">
1002.173601749218
999.8174643262525
999.8174642332183
998.6972760855685
998.6972761227787
997.047052308446
993.3628732667628
994.4092947232026
998.7799628876904
1000.005379374141
995.8430705124208
1000.588610814567
1000.58861085696
1001.112393667203
999.4196047166623
999.4196046790693
999.3224448858073
999.3224448850125
999.7220848329102
999.722084784083
1017.374342731259
999.7220848080902
1005.684820371326
1005.684820593503
999.3224449610077
1000.516915016816
992.9054253519705
992.9054250626599
1000.516914997734
1000.316496586401
1000.316496612187
997.6560490565216
994.3248021759235
999.6366581825753
999.6366581830379
999.6366582065339
1000.586414559774
999.2994980775833
999.2994981028801
1000.586414537667
1000.586414566663
994.1342952586435
994.6992817144679
999.2994981226074
992.2747203595966
991.1478153072595
1000.989706018006
1000.98970605245
999.7371296347125
1001.745244836836
1001.745244760516
1002.556961736226
997.7167599803603
998.5306083232188
999.4363825747585
999.4363825542264
997.7167599681991
997.7167599832542
999.5373920303476
999.5373920399481
999.5373920789378
996.7523287586475
998.5306083052001
1005.50752142945
1005.281209842545
1005.28120990466
1001.68535305511
999.954989031635
999.954989035116
999.9549890083155
1000.480122972171
988.7577662555756
996.2235772035847
1002.018072007742
1002.018072074314
999.0002485507539
999.0002485311454
1002.5928228778
994.3705518420169
1017.913976811772
1019.991117448368
1018.548927344321
1015.488329540366
999.7371296185369
999.7371296487927
999.7371296039055
1001.944619008161
1000.381575958056
1001.944619086079
1000.381576007737
1000.381576040364
997.7379015954472
1001.741050523696
1001.741050529832
997.2453840111363
1000.071243647022
999.5512713359884
995.0396065202833
997.7996877255449
1001.741050548947
998.5471147903335
998.5471147069696
1005.052810755166
1005.052810566962
998.9419336779426
998.9419336567773
995.9148427496949
999.5354910800564
999.5354911204732
999.4189765027859
999.5354911176344
999.4189764955833
996.1281088757625
1009.221677595417
996.1281088924228
1001.125320019898
1000.694029152451
991.490319690365
1002.77935268318
1008.133423649637
999.5354911027192
999.8994313184232
1008.13342363026
999.8994313452448
1003.539323073816
992.8446411434851
1003.539323089488
1000
996.3261124367294
996.3261124778193
996.3261125535764
1001.218678568179
1001.218678558053
1007.266657791502
1000
1001.218678550567
999.9964627201734
1000.939521445036
1000.93952145718
1000.93952147245
1000.641403596649
1000
1000.641403613058
1000.641403640077
999.5070455435733
999.5070455466399
1000.713399270468
999.5070455686607
999.5070455339272
999.5001199571049
999.5001200124161
999.5001201198905
997.7996876884719
1000.644748184452
999.7032365990943
999.7032366407531
999.7032366573577
1000.071243655074
1000.644748206934
1000.644748183632
1000.24729596987
999.58968450244
999.5896845298056
1000.337296096804
1000.337296153016
1000.392106899324
997.3702520504231
1000.247296076746
1000.39210694487
995.9630312687159
1000.39210691694
1000.036714889596
1000.0367148744
999.6683854366601
999.6683854416392
999.6683854456988
999.6683854543248
1001.873648903139
1001.873648942514
1001.873648930223
1000.216519342642
1001.792141298043
1001.792141297763
996.6415865884552
1003.515128687378
1001.792141254896
1001.879485606016
1000.358084336999
1000.020721722142
1000
1000
1001.879485645796
1002.195679623909
1002.195679623966
1002.195679702049
1000.036714848034
1002.142228048533
995.9630312025383
1002.142228089031
1002.142228116542
1000.694029113125
1001.240642983993
995.5719910275595
1003.539323139715
999.7512927836201
1002.382058455573
1002.533131143125
1000.18999619908
1000
1002.766785142554
1002.766785153916
1002.766785285404
1002.418226060575
1003.652427092331
1003.098226542384
1002.147885303868
1000.616592295171
1002.418226090548
1002.949906425743
1002.418226122251
1002.238792122834
1001.904713193983
1000.611947734609
1000.959039001824
1000.844955337959
1002.238792104786
1002.238792115618
1002.238792124507
1001.293501305971
1002.38241101743
1000.3783410136
1000.04723993836
1000.528622406773
1001.293501308384
999.0786319642522
999.0786319699255
1001.293501316675
1000
1000.400682044613
1001.655457590631
1001.676449470453
998.3218701445755
998.3218701190434
998.3218701446418
1001.449396548527
1000
1000
1000
1000
1001.449396569857
1001.449396641192
1002.067498363449
1002.067498352301
1008.573431624435
1008.573431606857
1008.573431591883
1003.785408894258
1002.227861372474
1002.227861392444
1002.227861505734
1001.186290435871
1001.18629047946
1004.936995582566
1001.768762497564
1001.768762462276
1001.768762436376
1000.360688534377
1000.360688340643
1012.779459695641
1012.779459569013
990.350048545886
1001.435473002807
1000.247295962699
1001.768762522664
1001.449396630826
1001.165361311621
1001.055449981808
1001.055449913333
999.8079787660879
999.6860090695961
1000.803620938019
999.4928183724002
1000
1000
998.2093133918555
999.8079787544794
999.4928183318742
999.4928183273469
1003.785408837734
1004.02112092275
1000.541421958953
1000.183967978588
1003.632497539389
1003.632497590619
999.4928183353153
996.2235772656105
1001.749454094727
1000.369976185706
1000.369976225448
991.4903196650988
991.490319654319
1000.440125959295
1000.44012590274
992.8446410896566
1002.652336550231
1002.652336582766
1003.632497544084
1001.645982230279
995.8430703466167
1002.556961803908
1002.556961747278
1001.123288472311
1000.005379471393
998.1599813520562
1001.571154209801
1000.656451607097
997.0470523124837
997.0470522993313
997.0470522912564
995.8496912865268
998.8359315747381
998.8359315632847
1002.049155971459
1002.652336580944
1003.702618144918
988.378806644829
993.1058896912942
1005.261698923898
1001.57606595612
982.3897411895393
992.2136792072222
996.2877216628096
997.3474250450723
996.1561029118141
1005.261698858731
997.4207212136749
1003.961069148966
1003.961069142499
994.4332871403673
994.4332871085977
996.2174847060347
997.1092286387893
1005.279268691095
1002.544952732814
996.217484685169
1002.544952640523
1001.210657044632
1001.188230920263
1003.366904477064
1004.618482422743
996.217484709413
1006.113229726701
1004.392763832735
1004.392763791866
1008.341193360002
1003.366904517349
1005.131582331677
1004.392763804052
1001.240643018531
1000.803620962396
1002.779352652742
1005.131582249238
999.8252435351499
995.0975346445118
997.7996875642788
998.6161886120547
999.2863610898238
997.109228660638
996.7523286464252
1001.645982209407
1000.585744940698
1000.585744946895
999.5826233290146
993.6684329089035
993.6684328865384
1001.123288412675
997.8613539997208
997.8144906769578
997.8144906845015
994.7753479915294
997.861353982978
994.7753479527736
994.77534793661
1001.764510179089
1001.566119255136
1001.764510176639
1000.541421940678
999.200852330032
1000.932933848701
1000.656451551675
1000.656451522719
998.1400658256046
999.8079787075307
1000.98680012132
1000.986800074858
1000.986800052413
999.2008523458192
1010.20722162198
1000.30150982257
1005.918825658879
1000.30150983745
1003.047895733096
1001.732434867963
1001.732434841754
1001.732434852843
1003.047895715177
999.0687137535203
999.0687137436709
1000.938065984614
1003.582114636667
1003.582114636189
1003.582114622709
995.8195851226825
1000
1000
1000
1000.40068204253
995.8195851680656
999.9292203013603
999.9292203030503
1003.785408961056
999.2096874876802
1008.573431652101
998.1400658810061
1001.093897348
1002.009650202352
1002.382411021455
1000.378341012451
1001.576065957655
991.4903196297939
999.4825640878511
1001.370736311813
1001.904713203331
1000.611947715875
998.7799628387106
997.3702520746539
1000.661358207922
998.77996291104
1003.652427045684
1003.098226533304
1001.732434894187
1002.708049158335
996.9353753065252
1000.317112102887
1000.770752716251
1001.792388365781
1002.382058441245
999.3897615594035
999.7032365600541
1000.932933772923
993.1058896980519
994.433287110178
1000.04940761134
997.605903866683
994.4332870938908
1001.149687666544
1003.75808768612
1003.758087588947
1001.314588426261
994.5309149900758
1001.125319989622
996.6783141560891
996.6783141719484
1001.265553953013
1001.571154184456
1000.93806588637
999.8174642585682
997.9369571808368
1004.214473630446
1004.214473606154
998.5648161493035
1000
1000.35808434409
1011.146998368952
1000.588610804881
999.6366581946303
999.7512927820371
1001.072432095795
1000
1000
1001.314588341439
1003.062575226049
1001.100502439072
996.7871207691609
1000
1001.676449476249
990.5534330866029
990.5534330515203
1000.247296061674
1003.440121550352
1005.281209836194
1017.913976823047
1001.655457582758
992.8446410589463
1001.072432098265
1000
1000
1005.281209890916
997.8979898942575
998.2093133822642
998.2093134364744
1001.188230993243
1005.279268668641
998.7799628388385
1003.3669044778
1003.366904457062
1001.072432080344
998.5648161916331
1000
1006.772915028566
1000.400682030216
1000.183967935042
1006.772915180437
1001.408601247647
1001.408601158067
1002.049155898337
1005.279268619797
992.2747203680689
991.1478151450473
1000.938065876016
1001.792388374659
1003.44012167522
997.8979900008117
996.7871207694008
995.0199024169222
1001.78560771191
997.936957183008
982.3897411703085
992.2136791714131
998.209313385658
995.5719910574718
998.1599813589924
993.1058896676814
998.5648160558865
1001.370736304152
999.0687137767242
1001.792388367601
999.8079786808839
1005.26169887214
1004.021120910512
1003.758087623883
1003.961069191084
997.8979899576507
1001.188230891989
1001.093897350973
1004.392763775733
995.5719909961659
1003.440121668065
1003.062575275831
1003.062575230528
1003.758087619058
999.4825641222685
1000.541421947832
1004.021120982671
1002.708049126855
994.3705518713604
1000.021858273309
1000.021858310542
998.2580073493705
998.2580073036366
1002.616962471575
1002.616962390472
999.0056247973848
982.3897412955089
991.1478153229572
995.8430704083155
1002.382411023213
1005.005046752559
1001.904713204548
1001.123288388871
996.7871207753798
995.0199022597798
1005.684820482768
1003.652427052419
990.5534330119839
990.5534330077473
1001.764510209396
1002.382058468928
998.5471146077995
998.1599813179545
1000.358084348768
1000
999.2008522918277
1005.052810720484
1000.360688539832
992.9054247094512
992.9054255216702
991.1478151497067
1001.112328969148
1000.00537938336
1019.991117404239
1000
1000.020721725712
1002.533131157104
1003.09822657522
1000.611947732854
1000.37834100253
1000.656451550701
1017.913976846096
998.1400657950467
1001.112328939737
1000.986800133673
992.2136790643867
992.2747202698904
1001.314588401479
994.3705518367285
982.3897411210339
1000.360688296296
1012.779459719711
1000.183968172159
1001.14968760905
1000.301509912126
1001.149687641044
1001.12531993727
1002.382411017167
1001.904713202189
1003.65242709816
1002.382058478385
1000.358084349681
1000
1017.913976814047
995.8430704648846
1005.052810704166
1002.860571761219
1017.374342675849
1008.705987635964
995.5582350495151
995.5582351334316
1000.698764870104
1000.698764869732
997.2453839353531
1002.173601702841
1007.552983792297
1007.552983752335
999.0687137376149
1000.480123192021
1000.480122917161
996.2319016197303
1002.173601727231
995.0396068128754
995.0396066777226
1002.759052025663
1004.92927408117
1004.929274075513
998.0847927885591
998.0847929150499
999.9684670118746
1004.134169781283
1004.134170141599
998.9484951954222
990.3500486499279
1001.435473175746
994.7441852847578
997.5140298993797
997.5140298085194
1000.86020371672
997.6130650914944
994.409294720559
993.362873155663
988.3782830520756
999.3600947434051
1000.221949818658
998.026477538649
1001.110084778987
998.2556942395772
992.6934708277707
1001.110084574752
1000.39909371973
998.0264776221259
990.3500487598131
996.6900977265962
998.3959017696315
1001.030154747001
999.6643869489906
998.3959017711009
996.6900974796619
1000.221949709468
1001.435473012854
1000.777576821458
996.7808745530881
995.761269439343
1001.728969689318
995.761269471477
996.7808745679765
1000.777576997101
999.3600946437963
1003.515128671735
1003.515128813529
1004.936995825428
1000.760314929568
999.6414095458939
995.4994381709309
999.7472651246775
999.792416391788
995.4994381852312
999.6414097939231
1000.76031478885
1004.936995877708
993.3628733186858
1001.119095521833
1001.119095483125
1001.40860123202
1001.571154166619
1001.119095476035
1000.317112103413
1000.049407533462
1001.408601244735
1000
1000
1000
1000
1000.058868001609
1000.508425303138
1001.655457586891
1001.676449460854
1001.100502456902
1000.645865123451
1000.132115957505
1000
994.409294901954
1000.047239942731
1000.528622438986
1000.974029293433
1000.826870177441
1000.241678663405
1000.038860647845
1000.959038998467
1000.844955312008
1000.748089392958
1000.407730147036
1000.400429950366
1001.309661825385
1002.147885327637
1000.616592294932
1000.325992074725
1000.591621746003
1002.281408806211
1000.921660611747
1002.53313117498
1000.189996196462
1000
1000.192919073455
1002.064896253852
1001.129800189992
1000
1009.51946646763
1000.020721725386
1000
1000
1002.454861635356
1004.087579457834
1001.772323240047
1000
994.5309151980069
996.5846369358127
996.5846375494502
998.6161884327215
998.5306082927372
995.0199022684261
1000
1000
1000.713399236979
1000.712236564264
1002.899093861838
1001.477241608519
1000
1018.548927373443
1015.488329605696
1010.515275026017
1024.094333386691
1004.804525036975
1000
1000.562946526716
1000
1000.713399246933
1000.71223659592
1002.899093896991
1001.477241517584
1000
1001.413991588004
1000
1000
1002.454861647463
1004.087579561738
1001.77232320063
1000
1000
1000.189996187192
1000
1000.19291913712
1002.064896272212
1001.129800221147
1000
1000
1002.147885342117
1000.616592323894
1000.325992003607
1000.591621764725
1002.281408883928
1000.921660606633
1000.602339408362
1000.959038983768
1000.844955323466
1000.748089509026
1000.407730219507
1000.400429981367
1001.309661872504
1000.616632527099
1000.130987441679
1000.047239929284
1000.528622394973
1000.974029258057
1000.826870176768
1000.241678660583
1000.038860695064
1000.14185058282
1002.04915605908
996.1281089279228
997.6059038717458
1000.464405506045
1000.645865095719
1000.13211593101
1000
1000
996.1281088976122
996.9353752788228
1000.317111998614
1000
1000.058867949509
1000.508425304926
1000.631335252562
997.3474250070135
1001.370736207602
1001.78560762034
1001.645982107782
1002.779352501281