<VTKFile type="PolyData" version="1.0" byte_order="LittleEndian" header_type="UInt64">
  <PolyData>
    <Piece NumberOfPoints="1448" NumberOfVerts="1448">
      <Points>
        <DataArray type="Float64" Name="Points" NumberOfComponents="3" format="ascii">
0.08166203633620521 0.1294266888915671 0.014849475356519
0.04415248845838105 0.1258475042053088 0.0315786691515749
0.07667590025222179 0.1346745057691311 0.01076745167426477
0.02985816141707498 0.140141838623955 0.05360289253053521
0.03147240906948516 0.1385275909254959 0.05326855562470846
0.008186842105263157 0.1256657894736842 0.11305
0.02837049694075031 0.1416295030566203 0.05346042040504799
0.1238214635366493 0.1333038714271801 0.03017246219302499
0.03300299312533837 0.1369970067495939 0.05247837211284642
0.1443283481726977 0.1355025396538097 0.04944007572256256
0.135502539695721 0.1443283482443528 0.04944007568951412
0.03669612804251604 0.123821463688743 0.03017246203941548
0.08182898987356133 0.1241475871108076 0.001521954061891634
0.0586171201712134 0.1113828797248996 0.02750214173066186
0.03690315794212441 0.133096841855169 0.04737118349631154
0.141629503023233 0.141629503034616 0.05346042043704349
0.02975793219107584 0.1326065144900586 0.0478936309257584
0.07970214897171513 0.1395077702557437 0.007750506529832667
0.04276382294951701 0.1198521850065162 0.0267817822675347
0.06906119928449615 0.1140659953730575 0.02409332166151952
0.05330711744332216 0.1223311500653795 0.02458765315462553
0.1337570627803602 0.1447222770380805 0.04603362121812009
0.1214533082268255 0.1323156821812231 0.02512318005120162
0.1263999280828176 0.1394377900976036 0.02951559676132353
0.1618131578947369 0.1527763157894737 0.1218115384615385
0.03813667816341432 0.1318633217640067 0.04459903085513264
0.02309238941076084 0.1469076106105866 0.04968919352754397
0.07522108964781588 0.1381731759415635 0.00678494662934864
0.03768431782450987 0.1214533082187664 0.02512318011511809
0.03624293714269811 0.1447222770687691 0.04603362120758071
0.1447222770381004 0.1337570628033879 0.04603362132479717
0.08334107432623003 0.1395396614537213 0.008807385384249682
0.1294294388446948 0.1401509434789036 0.03624975863915306
0.02527772287452172 0.1337570628744309 0.04603362119028159
0.03960727477042769 0.130392724425983 0.0411962015648818
0.1401509434056145 0.1294294388451752 0.0362497587756835
0.1130608708725475 0.1362751671926731 0.011517075619588
0.1145695088023696 0.1377977328410739 0.002573805304819161
0.116628947368421 0.1618131578947369 0.09552692307692309
0.1075921052631579 0.1618131578947369 0.09552692307692309
0.116628947368421 0.1618131578947369 0.08676538461538462
0.1075921052631579 0.1618131578947369 0.08676538461538462
0.116628947368421 0.1618131578947369 0.1042884615384616
0.1075921052631579 0.1618131578947369 0.1042884615384616
0.1051137917402553 0.1354969335901167 0.00629920143391788
0.07953044090121916 0.1413992522879824 0.002863609238448215
0.06766825649002797 0.1138139570826046 0.01645091739517664
0.1034101494386811 0.140470955237647 0.001362677013246146
0.1081889412830447 0.1386005612267736 0.002548761931407955
0.03739348553249089 0.1402420677958963 0.0478936308829727
0.0741865101542067 0.1058084592349624 0.01669698770753526
0.116628947368421 0.1618131578947369 0.07800384615384616
0.03888963038922254 0.1311103704539298 0.03932647066781989
0.1316272644982937 0.1316272654631517 0.02094965928444749
0.1208704776470766 0.1403197190707333 0.008811760598877633
0.1527763157894737 0.1618131578947369 0.1042884615384616
0.1520832770138443 0.1405591515421512 0.03560035236412867
0.1405591512131943 0.1520832769352552 0.03560035224450189
0.06419154059843596 0.09581348977755605 0.01669698778191683
0.1267567779873144 0.1477654664318649 0.0187454665035883
0.1469076105256923 0.1469076105276267 0.04968919354274725
0.1522104141013844 0.1419038926934556 0.0312941327904478
0.1489009919328297 0.1489009919515689 0.0458350014256878
0.1075921052631579 0.1618131578947369 0.07800384615384616
0.1419038925148453 0.1522104141224735 0.03129413285006691
0.1256657894736842 0.1618131578947369 0.09552692307692309
0.1437394736842105 0.1618131578947369 0.08676538461538462
0.116628947368421 0.1618131578947369 0.0692423076923077
0.1075921052631579 0.1618131578947369 0.0692423076923077
0.116628947368421 0.1618131578947369 0.06048076923076924
0.1075921052631579 0.1618131578947369 0.06048076923076924
0.116628947368421 0.1618131578947369 0.05171923076923078
0.1347026315789474 0.1618131578947369 0.08676538461538462
0.1256657894736842 0.1618131578947369 0.08676538461538462
0.1075921052631579 0.1618131578947369 0.05171923076923078
0.116628947368421 0.1618131578947369 0.04295769230769231
0.1075921052631579 0.1618131578947369 0.04295769230769231
0.07490650482956011 0.1228448826498702 0.0140175053317625
0.116628947368421 0.1618131578947369 0.03419615384615385
0.08048157894736842 0.1618131578947369 0.007911538461538463
0.1075921052631579 0.1618131578947369 0.03419615384615385
0.08048157894736842 0.1618131578947369 0.01667307692307693
0.116628947368421 0.1618131578947369 0.02543461538461539
0.1075921052631579 0.1618131578947369 0.02543461538461539
0.116628947368421 0.1618131578947369 0.01667307692307693
0.1075921052631579 0.1618131578947369 0.01667307692307693
0.09695651007055422 0.1313670010496033 0.01065915192375445
0.116628947368421 0.1618131578947369 0.007911538461538463
0.1075921052631579 0.1618131578947369 0.007911538461538463
0.08048157894736842 0.1618131578947369 0.02543461538461539
0.1256657894736842 0.1618131578947369 0.1218115384615385
0.08048157894736842 0.1618131578947369 0.03419615384615385
0.07144473684210526 0.1618131578947369 0.04295769230769231
0.08048157894736842 0.1618131578947369 0.04295769230769231
0.07144473684210526 0.1618131578947369 0.05171923076923078
0.08048157894736842 0.1618131578947369 0.05171923076923078
0.07144473684210526 0.1618131578947369 0.06048076923076924
0.08048157894736842 0.1618131578947369 0.06048076923076924
0.1437394736842105 0.1618131578947369 0.09552692307692309
0.1347026315789474 0.1618131578947369 0.09552692307692309
0.1437394736842105 0.1618131578947369 0.1042884615384616
0.1527763157894737 0.1618131578947369 0.09552692307692309
0.1347026315789474 0.1618131578947369 0.1042884615384616
0.1256657894736842 0.1618131578947369 0.1042884615384616
0.0714354215523563 0.140138788074078 0.003129194665918405
0.07431709639915468 0.1296916091699515 0.02082992589214394
0.07398418519478131 0.118992967784854 0.002501302379646075
0.09544085446797683 0.1006952272489136 0.009323080988280691
0.1618131578947369 0.1618131578947369 0.1042884615384616
0.1401418387378736 0.1401418386543084 0.05360289257601343
0.04985200067012832 0.1201479984803119 0.02836780663253024
0.05014781484570252 0.1272361776178881 0.0267817823429936
0.04617853621537729 0.1333038714283941 0.03017246241907055
0.05370768066772511 0.125310513148577 0.02132753258028714
0.04854669133724517 0.1323156821788843 0.02512318067864564
0.1618131578947369 0.1527763157894737 0.1042884615384616
0.1618131578947369 0.1437394736842105 0.1042884615384616
0.1618131578947369 0.1347026315789474 0.1042884615384616
0.1256657894736842 0.1618131578947369 0.007911538461538463
0.1347026315789474 0.1618131578947369 0.007911538461538463
0.1437394736842105 0.1618131578947369 0.007911538461538463
0.1527763157894737 0.1618131578947369 0.007911538461538463
0.1618131578947369 0.1618131578947369 0.07800384615384616
0.1618131578947369 0.1527763157894737 0.07800384615384616
0.1618131578947369 0.1437394736842105 0.07800384615384616
0.1618131578947369 0.1347026315789474 0.07800384615384616
0.1618131578947369 0.1618131578947369 0.09552692307692309
0.1618131578947369 0.1618131578947369 0.0692423076923077
0.1618131578947369 0.1527763157894737 0.0692423076923077
0.1618131578947369 0.1437394736842105 0.0692423076923077
0.1618131578947369 0.1347026315789474 0.0692423076923077
0.1618131578947369 0.1527763157894737 0.09552692307692309
0.1618131578947369 0.1618131578947369 0.06048076923076924
0.1618131578947369 0.1527763157894737 0.06048076923076924
0.1618131578947369 0.1437394736842105 0.06048076923076924
0.1618131578947369 0.1347026315789474 0.06048076923076924
0.1618131578947369 0.1618131578947369 0.05171923076923078
0.1618131578947369 0.1527763157894737 0.05171923076923078
0.1618131578947369 0.1437394736842105 0.05171923076923078
0.1618131578947369 0.1347026315789474 0.05171923076923078
0.1256657894736842 0.1618131578947369 0.01667307692307693
0.1618131578947369 0.1618131578947369 0.04295769230769231
0.1618131578947369 0.1527763157894737 0.04295769230769231
0.1618131578947369 0.1437394736842105 0.04295769230769231
0.1618131578947369 0.1347026315789474 0.04295769230769231
0.1347026315789474 0.1618131578947369 0.01667307692307693
0.1618131578947369 0.1618131578947369 0.03419615384615385
0.1618131578947369 0.1527763157894737 0.03419615384615385
0.1618131578947369 0.1437394736842105 0.03419615384615385
0.1618131578947369 0.1347026315789474 0.03419615384615385
0.1618131578947369 0.1618131578947369 0.02543461538461539
0.1618131578947369 0.1527763157894737 0.02543461538461539
0.1618131578947369 0.1437394736842105 0.02543461538461539
0.1618131578947369 0.1347026315789474 0.02543461538461539
0.1618131578947369 0.1618131578947369 0.01667307692307693
0.1618131578947369 0.1527763157894737 0.01667307692307693
0.1618131578947369 0.1437394736842105 0.01667307692307693
0.1618131578947369 0.1347026315789474 0.01667307692307693
0.1618131578947369 0.1618131578947369 0.007911538461538463
0.1618131578947369 0.1527763157894737 0.007911538461538463
0.1618131578947369 0.1437394736842105 0.007911538461538463
0.1618131578947369 0.1347026315789474 0.007911538461538463
0.04360007164804813 0.1394377899668292 0.02951559688126332
0.1437394736842105 0.1618131578947369 0.01667307692307693
0.1527763157894737 0.1618131578947369 0.01667307692307693
0.1256657894736842 0.1618131578947369 0.02543461538461539
0.1347026315789474 0.1618131578947369 0.02543461538461539
[...]
      <PointData>
        <DataArray type="UInt64" Name="type" format="ascii">
1
1
1
1
1
0
1
1
1
1
1
1
1
1
1
1
1
1
1
1
1
1
1
1
0
1
1
1
1
1
1
1
1
1
1
1
1
1
0
0
0
0
0
0
1
1
1
1
1
1
1
0
1
1
1
0
1
1
1
1
1
1
1
0
1
0
0
0
0
0
0
0
0
0
0
0
0
1
0
0
0
0
0
0
0
0
1
0
0
0
0
0
0
0
0
0
0
0
0
0
0
0
0
0
1
1
1
1
0
1
1
1
1
1
1
0
0
0
0
0
0
0
0
0
0
0
0
0
0
0
0
0
0
0
0
0
0
0
0
0
0
0
0
0
0
0
0
0
0
0
0
0
0
0
0
0
0
0
0
0
0
0
1
0
0
0
0
0
0
0
0
0
0
0
0
0
0
0
0
0
0
0
0
0
0
0
0
0
0
0
0
0
0
1
1
1
1
1
0
1
0
0
1
0
1
1
0
0
1
0
1
1
1
0
1
1
1
1
1
1
1
1
1
1
1
1
1
1
1
1
1
1
0
1
0
1
1
0
1
1
1
1
1
1
1
1
1
1
1
0
1
1
1
1
1
1
1
1
1
1
1
1
1
0
1
0
1
1
1
1
1
1
1
1
1
1
0
1
0
1
1
1
1
1
0
1
1
1
1
1
1
1
1
1
1
1
0
1
1
1
1
1
1
1
0
1
1
1
0
1
0
0
1
0
0
1
1
1
1
1
1
0
0
1
1
0
0
1
1
1
1
1
1
1
1
1
1
1
1
1
1
1
0
1
1
1
1
1
1
1
1
1
1
1
1
1
1
1
1
1
1
0
1
0
0
0
0
0
0
0
0
0
0
0
0
0
0
0
0
0
0
0
0
0
0
0
0
0
0
0
0
0
0
0
0
0
0
0
0
0
0
0
0
0
0
0
0
1
0
0
0
0
1
0
0
0
0
0
0
0
0
1
0
0
0
0
1
0
0
0
0
1
0
0
0
0
1
1
1
0
0
0
0
0
0
0
1
1
1
1
0
1
0
0
0
1
0
1
0
0
0
0
0
0
0
0
0
0
0
0
0
1
0
0
0
0
0
0
0
0
0
0
0
0
0
0
0
0
0
0
0
0
0
0
0
0
0
0
0
0
0
0
0
0
0
0
0
0
0
0
0
0
0
0
0
0
0
0
0
0
0
0
0
0
0
0
0
0
0
0
0
0
0
0
0
0
0
0
0
0
0
0
0
0
0
0
0
0
0
0
0
0
0
0
0
0
0
0
0
0
0
0
0
0
0
0
0
0
0
0
0
0
0
0
0
0
0
0
0
0
0
0
0
0
0
0
0
0
0
0
0
0
0
0
0
0
0
0
0
0
0
0
0
0
0
0
0
0
0
0
0
0
0
0
0
0
0
0
0
0
0
0
0
0
0
0
0
0
0
0
0
0
0
0
0
0
0
0
0
0
0
0
0
0
0
0
0
0
0
0
0
0
0
0
0
0
0
0
0
0
0
0
0
0
0
0
0
0
0
0
0
0
0
0
0
0
0
0
0
0
0
0
0
0
0
0
0
0
0
0
0
0
0
0
0
0
0
0
0
0
0
0
0
0
0
0
0
0
0
0
0
0
0
0
0
0
0
0
0
0
0
0
0
0
0
0
0
0
0
0
0
0
0
0
0
0
0
0
0
0
0
0
0
0
0
0
0
0
0
0
0
0
0
0
0
0
0
0
0
0
0
0
0
0
0
0
0
0
0
0
0
0
0
0
0
0
0
0
0
0
0
0
0
0
0
0
0
0
0
0
0
0
0
0
0
0
0
0
0
0
0
0
0
0
0
0
0
0
0
0
0
0
0
0
0
0
0
0
1
0
0
1
0
1
0
0
0
0
1
1
0
1
1
1
1
0
0
0
1
1
1
1
1
1
1
0
0
0
0
0
0
0
1
1
1
1
0
0
1
1
1
1
1
1
1
1
1
1
1
1
1
0
0
1
1
1
1
1
0
0
1
1
1
1
1
1
1
1
1
0
0
0
1
0
0
0
0
0
0
0
0
0
0
1
1
1
1
0
0
0
0
0
0
0
1
1
1
1
1
1
1
1
1
1
1
1
0
0
0
0
1
1
1
1
1
1
1
1
1
1
0
0
0
0
0
0
0
0
1
1
1
1
1
1
1
1
1
1
1
1
0
0
0
0
0
0
0
0
0
0
0
0
0
0
0
0
0
0
0
0
0
0
0
0
0
0
0
0
0
1
1
1
1
1
1
1
1
1
1
1
1
1
1
1
1
1
1
1
1
1
1
1
1
1
1
1
1
1
1
1
1
1
1
1
0
0
0
0
0
0
0
0
0
0
0
0
0
0
0
0
0
0
0
1
1
1
1
1
1
1
1
1
1
1
1
1
1
1
1
1
1
1
1
1
1
1
0
0
0
0
1
0
0
1
0
0
0
1
1
1
1
1
1
1
1
1
1
1
1
1
1
1
1
1
1
1
1
1
1
1
1
1
1
0
1
1
1
1
1
1
1
0
0
0
0
0
1
0
0
1
1
1
0
0
0
0
0
0
0
0
0
0
0
0
0
0
1
1
0
1
1
1
1
1
1
1
1
1
1
0
0
0
0
0
0
0
0
0
0
0
0
0
0
0
0
0
0
0
0
0
1
0
0
0
0
0
0
0
0
0
0
0
0
0
0
0
0
0
0
0
0
0
0
0
0
0
0
0
0
0
0
0
0
0
0
0
0
0
0
0
0
0
0
0
0
0
0
0
0
0
0
0
0
0
0
0
0
0
0
0
0
0
0
0
0
0
0
0
0
0
0
0
0
0
0
0
0
0
0
0
0
0
0
0
0
0
0
0
0
0
0
0
0
0
0
0
0
0
0
0
0
0
0
0
0
0
0
0
0
0
0
0
0
0
0
0
0
0
0
0
0
0
0
0
0
0
0
0
0
0
0
0
0
0
0
0
0
0
0
0
0
0
0
0
0
0
0
0
0
0
0
0
0
0
0
0
0
0
0
0
0
0
0
0
0
0
0
0
0
0
0
0
0
0
0
0
0
0
0
0
0
0
0
0
0
0
0
0
0
0
0
0
0
0
0
0
0
0
0
0
0
0
0
0
0
0
0
0
0
0
0
0
0
0
0
0
0
0
0
0
0
0
0
0
0
0
0
0
0
0
0
0
0
0
0
0
0
0
0
0
0
0
0
0
0
0
0
0
0
0
0
0
0
0
0
0
0
0
0
0
0
0
0
0
0
0
0
0
0
0
0
0
0
0
0
0
0
0
        </DataArray>
        <DataArray type="Float64" Name="density" format="ascii">
999.6535509121572
1001.597215229704
1000.114113113438
999.2567546890314
1000.136317983364
1000
999.8797671780112
998.29243230077
999.6859115959513
1000.922823009745
1000.92282311174
998.2924332559289
998.9444036267254
998.5001140592316
999.4477529162823
999.8797672765028
999.9413064689293
996.5701291900535
999.3172079939465
998.7713470297393
1000.256293846947
1000.430312573856
999.7216926314466
1000.444413390802
1000
999.2078055418002
997.042703290419
1002.169175522144
999.7216919090479
1000.430312652501
1000.430312580427
995.934220040545
1001.132799636491
1000.430312412356
998.9275146353061
1001.132799570542
998.685786483804
998.3176897095649
1000
1000
1000
1000
1000
1000
992.7296565385592
1003.01588922388
1001.1248163112
997.2879858511079
1001.640671823691
999.941306633008
998.9890955876012
1000
1001.479908423406
1005.025327554094
998.2219117723657
1000
999.8559944505831
999.8559947135763
998.9890947418764
1001.284760360471
997.0427034460134
1001.322962325887
998.519687878069
1000
1001.32296159696
1000
1000
1000
1000
1000
1000
1000
1000
1000
1000
1000
1000
999.8727734314253
1000
1000
1000.005080030464
1000
1000
1000
1000
1000
1000.599402743871
1000
1000
1000
1000
1000
1000
1000
1000
1000
1000
1000
1000
1000
1000
1000
1000
1000
997.7222883537692
999.5999309117424
996.9211719345074
1000.938063618322
1000
999.2567545673108
999.7758129182557
999.3172054442034
998.2924313090906
996.7592054540589
999.7216903538985
1000
1000
1000
1008.328564833688
1017.704381598749
1000
1000
1000
1000
1000
1000
1000
1000
1000
1000
1000
1000
1000
1000
1000
1000
1000
1000
1000
1000
1000
1000
1000
1000
1000
1002.146314261077
1000
1000
1000
1000
1000
1000.097850754117
1004.746251021931
1003.973424994087
1000
1000
1000.190098382538
1002.146314349317
1000
1000
1000
1017.704381191143
1000.444412900694
1000.19009734547
1000
1000
1003.973424474395
1004.746250312022
1000.097850659147
1000
1000
1000
1000
1000
1000
1000
1000
1000
1000
1000
1000
1000
1000
1000
1000
1000
1000
1000
1000
1000
1000
1000
1000
993.151638424702
994.43052276088
997.3925985478261
999.8503386669259
999.8503386652595
1000
999.9413066837475
1000
1000
1000.580312478811
1000
999.9413066849747
1003.784638476487
1000
1000
997.7222901675931
1000
997.2861194570183
999.2936757317101
1000.580312360021
1000
999.8711567601778
997.4288167920087
997.4288177816667
996.1402662317695
999.0692250350251
999.5253374916884
999.5999309432191
995.7012129384369
995.7012118482957
998.4233671425229
1001.486285914785
999.3427570511805
999.0128772862122
1001.601888901586
1004.31346932744
995.5385409820843
995.5385433574672
995.6981538551206
1000
999.8517819642148
1000
998.6059737208762
1002.347461498934
1000
999.4491054970595
999.7601479909632
998.2855962652422
1000.922823168864
1001.948158571803
998.9810179844195
998.9810200055622
1001.132799219029
999.3567042136478
997.286119702869
1001.132799314098
1000
1001.486285956082
999.3165547106543
1017.561688832602
999.4275373537511
999.8711568243654
1000.60370897071
997.8259304983619
999.9323349149043
1000.922823119801
999.851782052296
999.7793701097069
1002.025797019139
999.6381700218332
1000
997.713470473758
1000
999.783920204636
1003.284709753326
999.2590230123629
999.2590234405181
1001.070567501909
999.7839197818703
1001.070567089016
999.7839208723451
998.6092821327139
999.6606715520476
1000
996.2740867559596
1000
1000.113049684275
1001.336118949949
998.6092803350141
1000.113050136125
995.5089448543005
1000
998.1725270718179
995.5089445743291
999.8727745876539
999.6606732057595
994.5494570149887
999.6606721687263
1010.464730621307
995.6981549868837
1000.464151233353
999.4491058344361
1002.951315993398
1000
998.2882867675439
995.5089452399232
1010.464724216325
1000.464151738693
997.7134696370555
995.508944503759
1000.11305046367
1000
1002.95131781012
998.2882894093364
1000.113049992128
1000
1003.784639555636
1000
1000
999.6535526910939
1000
1000
998.9444034827628
1000.114113692976
996.5701287153339
998.0568605885001
999.0692258869948
995.9342205111942
1000
1000
1002.169176450281
1003.01588863083
1000
1000
998.6092803716741
999.6381757889746
1010.464726187586
998.6092820154203
997.2879872530957
1000.603706987614
1002.951318169986
999.783921022192
1017.561693239214
998.285600700631
998.9810172553217
998.9810196821819
999.9323350147798
1000.599402695678
998.6059736952993
1000
1003.976605063377
997.1980568370459
1004.313469232866
999.8559945694442
998.5196881794349
994.5494538228581
999.8559948600341
1002.347461580813
990.4574149076942
998.2219109470155
998.3176881220463
999.6606724776292
1005.025326956565
995.5385431189363
995.5385402265395
1001.64066871613
1001.336117484317
999.525337394007
1000
1001.28475922656
1000
1000
1000
1000
1000
1000
1000
1000
1000
1000
1000
1000
1000
1000
1000
1000
1000
1000
1000
1000.005080020567
1000
1000
1000
1000
1000
1000
1000
1000
1000
1003.973425400413
1004.746251853145
1000.097851267135
1000
1000
1000
1000
1002.146314925313
1000.190099084664
1000
1000
1017.704381367869
1000
1000
1000
998.1725279976583
1002.146314482027
1000.190097999868
1000
1000
992.7296645565104
1003.973424586242
1004.746251152715
1000.097851389304
1000
1000
1000
1000
1000
997.816305917564
1000
1000
1000
1000
999.9323356686732
1000
1000
1000
1000
999.2590232061059
1000
1000
1000
1000
999.2590239096373
1001.070566963082
1001.070566378522
1000
1000
1017.704381152225
1008.328565791493
1000
1000
1000
994.6125934298716
995.6981549254893
1001.322961233165
1001.322962091436
1000
998.6857949104783
1000
1000
1000
1003.035236651078
1000
1000.938063543043
1000
1000
1000
1000
1000
1000
1000
1000
1000
1000
1000
1000
1000
1001.479907809309
1000
1000
1000
1000
1000
1000
1000
1000
1000
1000
1000
1000
1000
1000
1000
1000
1000
1000
1000
1000
1000
1000
1000
1000
1000
1000
1000
1000
1000
1000
1000
1000
1000
1000
1000
1000
1000
1000
1000
1000
1000
1000
1000
1000
1000
1000
1000
1000
1000
1000
1000
1000
1000
1000
1000
1000
1000
1000
1000
1000
1000
1000
1000
1000
1000
1000
1000
1000
1000
1000
1000
1000
1000
1000
1000
1000
1000
1000
1000
1000
1000
1000
1000
1000
1000
1000
1000
1000
1000
1000
1000
1000
1000
1000
1000
1000
1000
1000
1000
1000
1000
1000
1000
1000
1000
1000
1000
1000
1000
1000
1000
1000
1000
1000
1000
1000
1000
1000
1000
1000
1000
1000
1000
1000
1000
1000
1000
1000
1000
1000
1000
1000
1000
1000
1000
1000
1000
1000
1000
1000
1000
1000
1000
1000
1000
1000
1000
1000
1000
1000
1000
1000
1000
1000
1000
1000
1000
1000
1000
1000
1000
1000
1000
1000
1000
1000
1000
1000
1000
1000
1000
1000
1000
1000
1000
1000
1000
1000
1000
1000
1000
1000
1000
1000
1000
1000
1000
1000
1000
1000
1000
1000
1000
1000
1000
1000
1000
1000
1000
1000
1000
1000
1000
1000
1000
1000
1000
1000
1000
1000
1000
1000
1000
1000
1000
1000
1000
1000
1000
1000
1000
1000
1000
1000
1000
1000
1000
1000
1000
1000
1000
1000
1000
1000
1000
1000
1000
1000
1000
1000
1000
1000
1000
1000
1000
1000
1000
1000
1000
1000
1000
1000
1000
1000
1000
1000
1000
1000
1000
1000
1000
1000
1000
1000
1000
1000
1000
1000
1000
1000
1000
1000
1000
1000
1000
1000
1000
1000
1000
1000
1000
1000
1000
1000
1000
1000
1000
1000
1000
1000
1000
1000
1000
1000
1000
1000
1000
1000
1000
1000
1000
1000
1000
1000
1000
1000
1000
1000
1000
1000
1000
1000
1000
1000
1000
1000
1000
1000
1000
1000
1000
1000
1000
1000
1000
1000
1000
1000
1000
1000
1000
1000
1000
1000
1000
1000
1000
1000
1000
1000
1000
1000
1000
1000
1000
1000
998.9275141546268
1000
1000
999.0692256959071
1000
999.0692250808203
1000
1000
1000
1000
1000.114113483406
1000.599402521436
1000
998.7713470062678
1003.784638139352
999.6535505224431
998.7713466692159
1000
1000
1000
1001.124816700589
996.5701288916293
999.3567046178927
1003.015888694981
1001.124817101775
1001.948157779261
999.760147814206
1000
1000
1000
1000
1000
1000
1000
999.2936757171384
999.2936746216191
999.8727740434899
1001.948159856935
1000
1000
1000.114113511144
999.8727732076624
1003.284709964182
997.2861199191479
997.2861196730145
996.2740871129605
995.9342207877695
1002.16917631355
998.9890956884777
999.356703797074
996.9211717226887
996.5701287322021
995.9342200811648
1000
1000
1000.599402513386
998.9444036458718
997.4288176359134
998.9444030288369
996.2740874394209
1000
1000
997.4288169153505
999.8711569153237
1003.015888681109
996.9211710020942
999.8711567495052
1000.580312389897
1000.580312508275
1003.284709208779
997.287985948658
1000
1000
1000
997.7222904367806
1000
1000
1000
1000
1000
1000
1000
1000
1000
1000
999.7601476218688
999.5999308214541
1003.784639993436
999.5999309683958
1000
1000
1000
1000
1000
1000
1000
999.6535532434815
1001.486286440191
1001.486286311116
999.6381703949592
1000.603708208686
998.2855964990193
994.5494549480374
995.7012107927962
995.7012119404366
997.3925980300705
994.4305219429066
998.2219114572478
1008.328565332745
1000
1000
1000
999.8503385169158
999.8503385791037
998.4233671858868
996.140265684029
998.1725271300346
1001.336118136861
1000.464154664213
997.1980571451983
998.6857874224561
998.3176894318747
1000
1000
1000
1000
1000
1000
1000.005080037709
1000
1001.640670783162
992.7296579226178
997.8163041230005
999.0128773142167
998.2882879441388
1001.601887978544
1001.486286056358
998.6059733284783
1003.035236920663
1000.938063481937
1000.938063567917
1001.486286590238
1000
1000
1000
1000
1000
1000
1000
1000
1000
1000
1000
1000
1000
1000
1000
1000
1000
1000
1000
1000
1000
1000
1000
1000
1000
1000
1000
1000
1000
1000.444411950596
996.7592038962246
1000.25629559773
1001.28475959483
993.151638179825
997.7134693731252
1000.938063558139
1000.938064025879
996.2740866127871
1003.035236613786
1001.124816304203
999.3567044189759
1001.486285771953
1000.938063290849
1001.284759736384
997.4288178548592
997.4288178232067
999.8711569675347
998.0568595712374
997.286119865479
999.293675179504
999.8711568822594
997.286119899975
1000.580312627299
998.9444028357416
1000.580312416314
1001.486286031126
998.7713470284358
998.9444021180196
997.7134714873081
998.9890956898641
999.7601476149241
1001.94815846083
996.9211711864158
999.8727734887882
1000
1000
1000
1000
1000
1000
1000
1000
1000
1000
1000
1000
1000
1000
1000
1000
1000
1000
1000
1001.124818088973
999.2936752322049
999.317206603293
998.2924324424395
999.3567042424467
999.7793701930394
998.9890943888371
996.2740877034025
999.0128762506035
996.7592058232229
999.7216905653522
996.7592053604081
999.7601475684997
1001.948159220535
996.9211715016163
997.1980590976216
999.3172075090998
998.2219110390459
999.4477530990129
998.5001139414043
999.2078056217023
1000.25629503739
1002.951314353903
1000
1000
1008.328565191731
1000
1000.256295620338
1000
1000
999.4275374917636
1000
1000
1000
995.6981546236831
999.6859117331884
998.7713464384431
999.3427572077834
998.2855996605359
997.8259294981165
1000.464148539511
1003.976605888131
1010.464726720736
1001.601889195297
994.549456475473
1002.025797525555
1000.60370770635
999.9323354740604
998.6059739973896
999.6381748534793
997.8163029570584
999.7758125942277
1001.597215371731
994.6125944956634
1001.336118758855
1000.136318033481
998.1725278802362
998.2882882813971
990.4574162697965
999.316554817527
1000
998.7713470652068
996.2740875726304
999.7601473828464
999.0128764146866
1001.948157496881
998.6857929653236
998.3176896842366
1000
1000
1000
1000
1000
997.7222905472122
1000
1000
999.8727734437966
1001.12481638491
997.1980584457908
1000
1000
1000
1000
1000
1000
1000.005080015712
1000
1000
1000
1000
1000
1000
1000
998.9890959420976
997.2879866792305
1000
992.729662274919
1001.640670297736
1003.284709928014
1000.938063653097
996.9211712042921
999.2936759386446
1001.601888978171
997.816305151898
999.3567041415544
1003.035236997379
1000
1000
1000
1000
1000
1000
1000
1000
1000
1000
1000
1000
1000
1000
1000
1000
1000
1000
1000
1000
1000
1000.444412834996
1000
1000
1000
1000
1000
1000
1000.168705065909
1042.502209584163
1000
1000
1000
1000
1000
1000
1000
1000
1000
1000
1000
1000
1000
1000
1000
1000
1000.224492735674
1000
1000
1000
1000
1000
1000
1000
1046.387222969246
1000
1000.051999332941
1000
1000
1000.168705066716
1000
1000
1000.051999332843
1000
1000
1028.537426075275
1035.743896695807
1000.000000603784
1000.170420880641
1000
1017.819509694492
1000.114227034757
1000
1000
1000
1000
1000
1000.114227034305
1000
1000
1000
1001.250415012738
1000
1000
1000
1000
1000
1037.837611421918
1000.134883852133
1032.030865037929
1000
1000
1037.837611734186
1000
1000
1046.387222988056
1000
1028.53742606914
1000
1000
1000
1000
1000
1000
1000
1000
1032.030865085248
1000
1000
1000
1000
1000
1000
1000
1017.819509683828
1000
1000
1000
1000
1000
1000
1000
1000
1000
1000
1000
1000
1000
1000
1000
1000
1000
1000
1000
1000
1000
1000
1000
1000
1000
1000
1000
1000
1000
1000
1000
1000
1000
1000
1000.168705065871
1042.502209512711
1000
1000
1000
1000
1000
1000
1000
1000.000000603784
1000
1000
1000
1000
1000
1000
1000.13488385215
1000
1000
1000.170420880239
1000
1000
1000
1000
1000
1000
1032.030865047897
1000
1000
1000
1000
1000
1001.250415020911
1000
1000
1000
1000
1000
1000
1028.53742603524
1035.743896751846
1000.109934696343
1000
1000
1000
1000
1000
1028.537426026415
1000
1000
1000
1046.38722299071
1000
1000.134883852197
1000
1000
1000
1000
1000
1000
1000
1000
1000.000000603784
1000
1000
1000
1000
1000.109934695829
1000.000000603784
1042.502209759703
1000.224492731819
1000.051999333031
1000
1000
1000
1000
1000
1000
1000.168705066079
1000
1000
1000
1035.743896647442
1000
1032.030865083093
1017.819509727859
1037.837611682116
1017.819509724188
1000
1000
1000
1000
1000
1000
1001.250415018938
1000
1000.170420880506
1000
1000
1000
1000
1000
1000
1000.051999332948
1000
1000.109934695346
1000
1000
1000
1000
1000
1000
1000
1000
1001.250415013327
1000
1000
1000
1000
1000
1000
1000
1000
1000.224492731987
1000
1000.114227035067
1000
1000
1000
1000
1000
1000
1000
1000.114227034512
1000
1035.743896784634
1000
1042.502209595864
1000
1000
1000
1000
1000
1000.109934695151
1000
1000
1000.170420880295
1000.134883851999
1037.837611426749
1000
        </DataArray>
        <DataArray type="Float64" Name="density_prev" format="ascii">
999.6333448187557
1001.831460433409
999.8035100067426
999.2539801493849
1000.157415365478
1000
1000.009598427837
998.4602994831462
999.7162237400705
1000.922164642
1000.92216480253
998.4603003756064
999.0165372126156
998.1497052796771
999.4052773671833
1000.00959849749
999.9421066962122
996.8025412395707
999.2876286680795
998.941865126279
999.9673161434048
1000.39010058982
999.7770572755626
1000.312888846333
1000
999.1378592425486
997.0522536390257
1001.799838463185
999.7770565026766
1000.3901006328
1000.390100569096
995.929866168818
1001.141441432879
1000.390100421091
999.0199899230311
1001.141441389155
998.6636381555003
998.5064044840533
1000
1000
1000
1000
1000
1000
993.0248655171351
1003.43163041663
1001.25557509996
997.4682469536573
1001.373529229712
999.9421068460732
999.1228052013288
1000
1001.574675234691
1005.133184627021
998.5282398282853
1000
999.7884348490902
999.7884349698403
999.1228044803942
1001.247941874739
997.0522537455473
1001.201386697831
998.6434598553368
1000
1001.201385831608
1000
1000
1000
1000
1000
1000
1000
1000
1000
1000
1000
1000
999.8093401447069
1000
1000
1000.00442721162
1000
1000
1000
1000
1000
1000.39887830771
1000
1000
1000
1000
1000
1000
1000
1000
1000
1000
1000
1000
1000
1000
1000
1000
1000
996.7239722208079
999.5591639604579
996.9206279747104
1001.148872405506
1000
999.2539800603536
999.6647122806199
999.2876263749065
998.4602984483397
996.6390696290033
999.7770552614465
1000
1000
1000
1008.318628062224
1017.697288827903
1000
1000
1000
1000
1000
1000
1000
1000
1000
1000
1000
1000
1000
1000
1000
1000
1000
1000
1000
1000
1000
1000
1000
1000
1000
1002.14246936909
1000
1000
1000
1000
1000
1000.119984314844
1004.72620128892
1003.992759702513
1000
1000
1000.198960419585
1002.142469464126
1000
1000
1000
1017.697288408819
1000.312888345569
1000.198959348687
1000
1000
1003.992759111442
1004.726200477398
1000.119984178591
1000
1000
1000
1000
1000
1000
1000
1000
1000
1000
1000
1000
1000
1000
1000
1000
1000
1000
1000
1000
1000
1000
1000
1000
992.9176540906385
994.1910038500654
997.3165086592534
999.9171988737243
999.9171988819294
1000
999.9421069046687
1000
1000
1000.789701789064
1000
999.9421069140474
1003.640163438242
1000
1000
996.7239741314688
1000
997.1044724598905
999.2147181357956
1000.789701625679
1000
999.9537364978988
997.2576521601458
997.2576530741269
996.0243468956072
998.9829868303582
999.3748505909773
999.5591640572004
995.7503939987855
995.7503928638401
998.3557091096576
1001.159094966395
999.4101607762975
998.9647464592437
1001.450058462605
1004.624788172633
995.3740324539027
995.3740348448356
995.7212063315997
1000
999.9184591800774
1000
998.9637728890373
1002.262709473109
1000
999.4434977786242
999.8413535906502
998.0509567140407
1000.922164828398
1001.901049322569
998.8971235609473
998.8971256838803
1001.141441052352
999.1021716353641
997.1044727094902
1001.141441118319
1000
1001.159095082123
999.4093778106007
1017.492748053515
999.4296418958984
999.9537365852102
1000.681145965765