<VTKFile type="PolyData" version="1.0" byte_order="LittleEndian" header_type="UInt64">
  <PolyData>
    <Piece NumberOfPoints="906" NumberOfVerts="906">
      <Points>
        <DataArray type="Float64" Name="Points" NumberOfComponents="3" format="ascii">
0.04798957911231328 0.122010404606152 0.01041232255125391
0.03355316844507066 0.1364468316848288 0.03486423980898034
0.03522793707263827 0.1347720629068599 0.03387651705969299
0.03197567279000905 0.1380243272465174 0.03530908653063406
0.1175064130560591 0.1314214986719066 0.01292072915177356
0.0367204553452575 0.1332795444394376 0.03241406678034916
0.1421258189892509 0.1320759245593947 0.03126257478749331
0.1320759248452507 0.1421258191587014 0.03126257498157501
0.03857849918442727 0.1175064125745295 0.01292072984569147
0.0616600109572345 0.1083399890438484 0.005817802924973021
0.04046535415849999 0.1295346454100424 0.02581280916946116
0.1380243270871811 0.1380243270524237 0.03530908703436044
0.03211402163185048 0.1284277851411933 0.02801975858548019
0.04625314855409031 0.1159241840804007 0.007412603041838658
0.07215124963662294 0.1099859879163301 0.002264837161066368
0.05650950160223604 0.117999174651231 0.003057414215139179
0.129653001693933 0.1429524086896275 0.02799297308872494
0.1153599514002689 0.1299473899947517 0.009182985574468174
0.119255426078257 0.139354318189417 0.01596493012566853
0.008186842105263157 0.1618131578947369 0.08676538461538462
0.04180829813679254 0.128191701788934 0.02291490770911146
0.0261824207603142 0.1438175792055188 0.03362716841707216
0.040052609638973 0.1153599516315792 0.009182986528283532
0.04034699856718472 0.1429524088983282 0.0279929729258865
0.1429524083951844 0.1296530018419444 0.02799297340899354
0.1226473108133973 0.1392736496780993 0.02007502936806954
0.02704759064592089 0.1296530013480721 0.02799297266946311
0.04384661965076932 0.1261533776164334 0.01924700631447702
0.04433421052631578 0.1618131578947369 0.08676538461538462
0.008186842105263157 0.1437394736842105 0.1042884615384616
0.008186842105263157 0.1527763157894737 0.1042884615384616
0.02626052631578947 0.1618131578947369 0.1042884615384616
0.03529736842105263 0.1618131578947369 0.09552692307692309
0.008186842105263157 0.1437394736842105 0.09552692307692309
0.04157221475976262 0.1378859787318827 0.02801975869759717
0.116628947368421 0.1618131578947369 0.07800384615384616
0.04308039481933974 0.1269196078330916 0.01750178996683606
0.008186842105263157 0.1256657894736842 0.08676538461538462
0.1514700938099598 0.1372503300613367 0.02443788454732989
0.1372503290869476 0.1514700936492037 0.02443788451379319
0.008186842105263157 0.1618131578947369 0.1042884615384616
0.1202482675260631 0.1414207828438551 0.007172014338132525
0.14381757915819 0.1438175792055541 0.03362716875459236
0.1515993048399325 0.1414049814521261 0.02214026823580045
0.1461215208843801 0.1461215210214613 0.03174523818499898
0.1075921052631579 0.1618131578947369 0.07800384615384616
0.1414049809623592 0.1515993050077989 0.02214026855355521
0.01722368421052631 0.1618131578947369 0.1042884615384616
0.03529736842105263 0.1618131578947369 0.08676538461538462
0.116628947368421 0.1618131578947369 0.0692423076923077
0.1075921052631579 0.1618131578947369 0.0692423076923077
0.116628947368421 0.1618131578947369 0.06048076923076924
0.1075921052631579 0.1618131578947369 0.06048076923076924
0.116628947368421 0.1618131578947369 0.05171923076923078
0.04433421052631578 0.1618131578947369 0.1042884615384616
0.05337105263157894 0.1618131578947369 0.08676538461538462
0.1075921052631579 0.1618131578947369 0.05171923076923078
0.116628947368421 0.1618131578947369 0.04295769230769231
0.1075921052631579 0.1618131578947369 0.04295769230769231
0.116628947368421 0.1618131578947369 0.03419615384615385
0.08048157894736842 0.1618131578947369 0.007911538461538463
0.1075921052631579 0.1618131578947369 0.03419615384615385
0.08048157894736842 0.1618131578947369 0.01667307692307693
0.116628947368421 0.1618131578947369 0.02543461538461539
0.1075921052631579 0.1618131578947369 0.02543461538461539
0.116628947368421 0.1618131578947369 0.01667307692307693
0.1075921052631579 0.1618131578947369 0.01667307692307693
0.116628947368421 0.1618131578947369 0.007911538461538463
0.1075921052631579 0.1618131578947369 0.007911538461538463
0.08048157894736842 0.1618131578947369 0.02543461538461539
0.06240789473684209 0.1618131578947369 0.1042884615384616
0.08048157894736842 0.1618131578947369 0.03419615384615385
0.07144473684210526 0.1618131578947369 0.04295769230769231
0.08048157894736842 0.1618131578947369 0.04295769230769231
0.07144473684210526 0.1618131578947369 0.05171923076923078
0.08048157894736842 0.1618131578947369 0.05171923076923078
0.07144473684210526 0.1618131578947369 0.06048076923076924
0.08048157894736842 0.1618131578947369 0.06048076923076924
0.06240789473684209 0.1618131578947369 0.09552692307692309
0.05337105263157894 0.1618131578947369 0.09552692307692309
0.03529736842105263 0.1618131578947369 0.1042884615384616
0.02626052631578947 0.1618131578947369 0.08676538461538462
0.01722368421052631 0.1618131578947369 0.08676538461538462
0.008186842105263157 0.1256657894736842 0.1042884615384616
0.02626052631578947 0.1618131578947369 0.09552692307692309
0.1364468317662568 0.1364468315461316 0.03486424038732257
0.0533760564461781 0.1166239416959951 0.006947609215577913
0.0540758160627514 0.1237468526617573 0.007412603127180108
0.05249358697541198 0.1314214987672505 0.01292072965926742
0.05751799534096548 0.1214017233057881 0.0009692926836106921
0.05464004794314661 0.1299473900208952 0.009182986786331575
0.01722368421052631 0.1618131578947369 0.09552692307692309
0.008186842105263157 0.1527763157894737 0.09552692307692309
0.008186842105263157 0.1618131578947369 0.09552692307692309
0.1256657894736842 0.1618131578947369 0.007911538461538463
0.1347026315789474 0.1618131578947369 0.007911538461538463
0.1437394736842105 0.1618131578947369 0.007911538461538463
0.1527763157894737 0.1618131578947369 0.007911538461538463
0.1618131578947369 0.1618131578947369 0.07800384615384616
0.1618131578947369 0.1527763157894737 0.07800384615384616
0.1618131578947369 0.1437394736842105 0.07800384615384616
0.1618131578947369 0.1347026315789474 0.07800384615384616
0.008186842105263157 0.1347026315789474 0.1042884615384616
0.1618131578947369 0.1618131578947369 0.0692423076923077
0.1618131578947369 0.1527763157894737 0.0692423076923077
0.1618131578947369 0.1437394736842105 0.0692423076923077
0.1618131578947369 0.1347026315789474 0.0692423076923077
0.06240789473684209 0.1618131578947369 0.08676538461538462
0.1618131578947369 0.1618131578947369 0.06048076923076924
0.1618131578947369 0.1527763157894737 0.06048076923076924
0.1618131578947369 0.1437394736842105 0.06048076923076924
0.1618131578947369 0.1347026315789474 0.06048076923076924
0.1618131578947369 0.1618131578947369 0.05171923076923078
0.1618131578947369 0.1527763157894737 0.05171923076923078
0.1618131578947369 0.1437394736842105 0.05171923076923078
0.1618131578947369 0.1347026315789474 0.05171923076923078
0.1256657894736842 0.1618131578947369 0.01667307692307693
0.1618131578947369 0.1618131578947369 0.04295769230769231
0.1618131578947369 0.1527763157894737 0.04295769230769231
0.1618131578947369 0.1437394736842105 0.04295769230769231
0.1618131578947369 0.1347026315789474 0.04295769230769231
0.1347026315789474 0.1618131578947369 0.01667307692307693
0.1618131578947369 0.1618131578947369 0.03419615384615385
0.1618131578947369 0.1527763157894737 0.03419615384615385
0.1618131578947369 0.1437394736842105 0.03419615384615385
0.1618131578947369 0.1347026315789474 0.03419615384615385
0.1618131578947369 0.1618131578947369 0.02543461538461539
0.1618131578947369 0.1527763157894737 0.02543461538461539
0.1618131578947369 0.1437394736842105 0.02543461538461539
0.1618131578947369 0.1347026315789474 0.02543461538461539
0.1618131578947369 0.1618131578947369 0.01667307692307693
0.1618131578947369 0.1527763157894737 0.01667307692307693
0.1618131578947369 0.1437394736842105 0.01667307692307693
0.1618131578947369 0.1347026315789474 0.01667307692307693
0.1618131578947369 0.1618131578947369 0.007911538461538463
0.1618131578947369 0.1527763157894737 0.007911538461538463
0.1618131578947369 0.1437394736842105 0.007911538461538463
0.1618131578947369 0.1347026315789474 0.007911538461538463
0.05074457430401592 0.1393543181258499 0.01596493074597389
0.1437394736842105 0.1618131578947369 0.01667307692307693
0.1527763157894737 0.1618131578947369 0.01667307692307693
0.1256657894736842 0.1618131578947369 0.02543461538461539
0.1347026315789474 0.1618131578947369 0.02543461538461539
0.1437394736842105 0.1618131578947369 0.02543461538461539
0.1527763157894737 0.1618131578947369 0.02543461538461539
0.1256657894736842 0.1618131578947369 0.03419615384615385
0.1347026315789474 0.1618131578947369 0.03419615384615385
0.1437394736842105 0.1618131578947369 0.03419615384615385
0.1527763157894737 0.1618131578947369 0.03419615384615385
0.1256657894736842 0.1618131578947369 0.04295769230769231
0.1347026315789474 0.1618131578947369 0.04295769230769231
0.1437394736842105 0.1618131578947369 0.04295769230769231
0.1527763157894737 0.1618131578947369 0.04295769230769231
0.1256657894736842 0.1618131578947369 0.05171923076923078
0.1347026315789474 0.1618131578947369 0.05171923076923078
0.1437394736842105 0.1618131578947369 0.05171923076923078
0.1527763157894737 0.1618131578947369 0.05171923076923078
0.1256657894736842 0.1618131578947369 0.06048076923076924
0.1347026315789474 0.1618131578947369 0.06048076923076924
0.1437394736842105 0.1618131578947369 0.06048076923076924
0.1527763157894737 0.1618131578947369 0.06048076923076924
0.1256657894736842 0.1618131578947369 0.0692423076923077
0.1347026315789474 0.1618131578947369 0.0692423076923077
0.1437394736842105 0.1618131578947369 0.0692423076923077
0.1527763157894737 0.1618131578947369 0.0692423076923077
0.1256657894736842 0.1618131578947369 0.07800384615384616
0.1347026315789474 0.1618131578947369 0.07800384615384616
[...]
      <PointData>
        <DataArray type="UInt64" Name="type" format="ascii">
1
1
1
1
1
1
1
1
1
1
1
1
1
1
1
1
1
1
1
0
1
1
1
1
1
1
1
1
0
0
0
0
0
0
1
0
1
0
1
1
0
1
1
1
1
0
1
0
0
0
0
0
0
0
0
0
0
0
0
0
0
0
0
0
0
0
0
0
0
0
0
0
0
0
0
0
0
0
0
0
0
0
0
0
0
1
1
1
1
1
1
0
0
0
0
0
0
0
0
0
0
0
0
0
0
0
0
0
0
0
0
0
0
0
0
0
0
0
0
0
0
0
0
0
0
0
0
0
0
0
0
0
0
0
0
0
0
0
1
0
0
0
0
0
0
0
0
0
0
0
0
0
0
0
0
0
0
0
0
0
0
0
0
0
0
0
0
0
0
1
1
1
0
1
0
0
0
1
0
0
0
1
0
1
1
1
1
1
1
1
1
1
0
1
0
1
0
1
1
1
1
1
1
0
1
1
1
1
1
1
1
1
0
1
0
1
1
1
1
1
1
1
1
0
0
1
1
1
1
0
1
1
1
1
1
1
1
0
1
1
1
1
1
1
1
0
1
1
0
0
0
0
0
1
1
0
0
0
0
1
1
1
1
1
1
1
1
0
1
1
1
1
1
1
0
1
0
1
0
0
0
0
0
0
0
0
0
0
0
0
0
0
0
0
0
0
0
0
0
0
0
0
0
0
0
0
0
0
0
0
0
0
0
0
0
0
0
0
0
0
0
0
1
0
0
0
0
0
0
0
0
0
0
0
0
0
0
0
0
1
0
0
0
0
1
0
0
0
0
1
1
1
0
0
0
0
0
0
0
1
1
0
0
0
0
0
0
0
0
0
0
0
0
0
0
0
0
0
0
1
0
0
0
0
0
0
0
0
0
0
0
0
0
0
0
0
0
0
0
0
0
0
0
0
0
0
0
0
0
0
0
1
0
0
0
0
0
0
0
0
0
0
0
0
0
0
0
0
0
0
0
0
0
0
0
0
0
1
1
1
1
1
1
0
0
0
0
1
1
1
1
1
1
0
0
0
0
0
0
0
0
1
1
1
1
1
1
1
1
1
1
1
1
1
1
1
1
1
1
1
1
1
1
0
0
0
0
1
0
0
1
0
0
0
1
1
1
1
1
1
1
1
1
1
1
1
1
0
1
0
0
0
0
0
0
0
0
0
0
0
0
0
0
0
0
0
1
1
1
1
1
0
0
0
0
0
0
0
1
1
1
1
1
1
1
1
1
1
1
1
1
1
1
1
1
1
1
1
1
1
1
1
1
0
0
0
0
0
0
0
0
1
1
1
1
0
0
0
0
0
0
0
0
0
1
1
1
1
0
0
0
0
0
0
0
1
0
0
0
0
0
0
0
0
0
0
0
1
0
0
0
0
0
0
0
0
0
0
0
0
0
0
0
0
1
0
0
0
0
0
0
0
0
0
0
0
0
0
0
0
0
0
0
0
0
0
0
0
0
0
0
0
0
0
0
0
0
0
0
0
0
0
0
0
0
0
0
0
0
0
0
0
0
0
0
0
0
0
0
0
0
0
0
0
0
0
0
0
0
0
0
0
0
0
0
0
0
0
0
0
0
0
0
0
0
0
0
0
0
0
0
0
0
0
0
0
0
0
0
0
0
0
0
0
0
0
0
0
0
0
0
0
0
0
0
0
0
0
0
0
0
0
0
0
0
0
0
0
0
0
0
0
0
0
0
0
0
0
0
0
0
0
0
0
0
0
0
0
0
0
0
0
0
0
0
0
0
0
0
0
0
0
0
0
0
0
0
0
0
0
0
0
0
0
0
0
0
0
0
0
0
0
0
0
0
0
0
0
0
0
0
0
0
0
0
0
0
0
0
0
0
0
0
0
0
0
0
0
0
0
0
0
0
0
0
0
0
0
0
0
0
0
0
0
0
0
0
0
0
0
0
0
0
0
0
0
0
0
0
0
0
0
0
0
0
0
0
0
0
0
0
0
0
0
0
0
0
0
0
0
0
0
0
0
0
0
0
0
0
0
0
0
0
0
0
0
0
0
0
0
0
0
0
0
0
0
        </DataArray>
        <DataArray type="Float64" Name="density" format="ascii">
1000.458224810296
1000.737716874758
1000.069294356344
1000.391668409345
1000.697292420532
999.7900928544065
1000.452276436736
1000.452275262934
1000.697291129217
1003.841291618108
999.9945125141314
1000.391667699898
999.0843423978968
999.9168706673554
996.7596351503779
999.3435605224118
998.998867203074
1000.557704371486
996.7022381494982
1000
1000.876423146362
1002.861338918984
1000.557705807383
998.9988702256072
998.9988692173403
1000.597157949232
998.9988678425418
999.9705362301262
1000
1000
1000
1000
1000
1000
999.084343823283
1000
1001.713216921733
1000
999.8284540374771
999.8284535343399
1000
1002.140449242902
1002.861337491794
1000.117843700726
1000.15377499493
1000
1000.117843794296
1000
1000
1000
1000
1000
1000
1000
1000
1000
1000
1000
1000
1000
1000
1000
1000
1000
1000
1000
1000
1000
1001.133365398533
1000
1000
1000
1000
1000
1000
1000
1000
1000
1000
1000
1000
1000
1000
1000
1000
1000.737716353372
997.353718205101
999.9168712541255
1000.697289404975
999.4222674761322
1000.557703021912
1000
1000
1000
1002.559014933149
1014.360593588601
1001.099941860567
1000.836794324439
1000
1000
1000
1000
1000
1000
1000
1000
1000
1000
1000
1000
1000
1000
1000
1000
1000
1000
1000
1000
1000
1000
1000
1000
1000
1000
1000
1000
1000
1000
1000
1000
1000
1000
1000.862077093706
1000
1000.474263500512
1000.836794366566
1001.099941837931
1014.360594023624
996.702236739606
1000.862077594551
1000
1000
1000
1000
1000
1000
1000
1000
1000
1000
1000
1000
1000
1000
1000
1000
1000
1000
1000
1000
1000
1000
1000
1000
1000
1000
1000
1000
1000
998.195465851804
998.769533785998
997.5446913556297
1000
999.084343269132
1000
1000
1000
999.0843420042224
1000
1000
1000
1002.74077408787
1000
997.5359714663497
997.5359703649332
1003.041719368681
1000.306867393
999.13387159483
1000.574419797091
1000.57442130142
996.4564924812609
996.4564913795256
1000
1001.165149173012
1000
996.845576076791
1000
1001.717201623938
1000.452275946096
997.6475539268278
997.6475536740024
1002.740774674569
1000.597155385359
1000
1007.474010264914
999.3571843955017
999.9222951783444
1001.007630623125
1000.698026784919
1000.452277103153
1001.165148096025
999.5543859367874
1000
999.4810826672025
1000
1000.253461508272
999.2508992278425
999.2509008405427
1000.253462922831
1000.994607008036
1000.253460959185
1000.496332714448
995.6822563732219
1000
1000
999.5656913540246
1000.496333310232
999.5656921147234
1001.86253151221
1000
1000.704592494447
1001.862531787077
995.6822499363444
996.0955232396296
995.68225246316
996.2822554086015
1001.717200226477
1000
998.8767744495957
1001.862534979701
999.9945121787539
996.2822554661391
999.4810810515565
1001.862535102358
999.5656911733947
1000
998.8767760715126
999.5656916825477
1000
1000
1000.00296919833
1000
1000.000078210757
1001.961081536514
1000.306866754541
1000
1000
1000
1000
1000.496335062076
999.9705379334494
1000.496334425556
999.9222975278269
1000.253458490597
997.6475634002605
997.6475632037265
1000.698029859981
1000
999.8284525746485
1000.153772826264
996.0955220041266
999.8284524418807
996.8455741193125
995.682252726185
1000
999.1338731994369
1000
1002.140451090321
1000
1000
1000
1000
1000
1000
1000
1000
1000
1000
1000
1000
1000
1000
1000
1000
1000
1000
1000
1000
1000
1000
1000
1000
1000
1000
1000
1000
1000
1000
1000
1000
1000.000078211193
1000
1000
1000
1000
1000.862077445537
1000
1000
1014.360594801439
1001.099940950712
1000.836793000442
1000.474263248719
1000.704594479906
1000
1000.862078378747
1000
1000
1000
1000
1000
1000
1000
1000
1000
1000
1000
1000
1000
1000
1000.698029401085
1000
1000
1000
1000
999.2508993894528
1000
1000
1000
1000
999.2509012928206
1000.994607346061
1000.876422400519
1000.83679304
1001.099940962261
1014.360596077816
1002.559015704465
1000
1001.133365898899
1000.002969197233
1000.117842666241
1000.117842286599
1000
1000
1000
1000
1000
1000
1000
1000
1000
1000
1000
1000
1000
1000
1000
1000
1000
1000
1001.713216110866
1000
1000
1000
1000
1000
1000
1000
1000
1000
1000
1000
1000
1000
1000
1000
1000
1000
1000
1000
1000
1000
1000
1000
1000
1000
1000
1000
1000
1000
1000
1000
996.7596345484874
1000
1000
1000
1000
1000
1000
1000
1000
1000
1000
1000.002969204615
1000.000078211485
1000
1000
1000
1000
1000
1000
1000
1000
1000
1000
1000
1000
1000
999.9222949586662
1000.574421472635
1000.574419345708
997.5446862266042
998.7695298534451
996.4564944914071
1002.559016182505
1000
1000
1000
1000.597157813535
996.4564932166098
1007.473991892285
1003.041719186227
1000.704593394715
996.2822537926241
1001.133366478826
1000
1000
1000
1000
1000
1000
1000
998.8767757382566
1000.994608169536
996.7022396701798
999.422264469539
999.3435599228508
1002.140449195301
998.1954750799606
999.4810827241353
996.095522426966
1002.140450449114
1001.961083247435
999.481081827887
999.9168711156157
1000.697288979316
996.7022371077866
999.4222672293553
1000.557702802861
999.4222672585721
999.9168707781132
1000.994607469251
1003.841293773851
999.3435595695721
1000
1000
1002.55901440814
1000
999.3435615727795
1000
1000
999.3571847631843
1000
1000
1000
999.7900928192322
996.7596340528169
1001.007633080322
996.2822576426713
996.0955230961854
999.5543854816603
999.9222968083089
1000.698027599738
997.3537175437797
1000.458227809465
1000.069294143967
1000.704594318395
998.8767752479453
1000
996.7596342635831
1001.133365249776
1000
1000
1000
1000
1000
1000
1000
1000
1000
1000
1000
1000
1000
1000
1000
1000
1000.597156511932
1000.306866727366
1000.306867663029
996.7596344547743
998.8767751626176
1000.002969197717
1000.000078210887
1000
1000
1000
1000
1000
999.4810818856946
1000.597156620606
1002.740773827385
1002.740774239565
996.7022370236587
995.6822507283297
997.5359703906279
997.5359711084946
1000.697289588841
1000.994607668807
1002.14045058938
1003.841293054197
999.3435597080938
999.5543857211749
997.353717491545
999.4222667376524
999.3435609081324
1000.458227193178
999.9168707578817
1001.007632794102
999.4222670121241
1000.69802840488
999.9222967380987
1001.961082420221
1000.557702769836
1000
1000
1000
1000
1000
1000
1000
1000
999.9168710423162
1000.704594288509
996.2822568829386
996.0955225826182
1000
1001.133365358638
1000
1000
1000
1000
1000
1000
1000
1000.306867129433
997.5359703450479
997.5359702416484
1002.74077362733
1000
1000
1000
1000
1000
1000
1000
996.7596347889397
1000
1000
1000
1000
1000
1000
1000
1000
1000
1000
1000
1000.306867188144
1000
1000
1000
1000.000078211526
1000.002969204592
1000
1000
1000
1000
1000
1000
1000
1000
1000
1000.000078210754
1000.002969197438
1002.740773968538
1000
1000
1000
1000
1000
1000
1000
1000
1000
1000
1000
1000
1000
1000
1000
1000
1000
1000
1000
1000
1000
1043.569128074452
1000.17080901659
1000
1000.170420880355
1000.13632136498
1048.888311960856
1000.245996872244
1000
1000
1043.569128355643
1038.296419185461
1000
1036.345079376027
1000
1000.170809018648
1038.296418883534
1000.136321364412
1000.170420880295
1000
1000.109934695151
1043.569127973607
1036.34507940618
1000.114227034512
1000
1000
1000.114227035067
1000
1000.24599688365
1048.888312107889
1001.242889267625
1000.245996885231
1000.109934695346
1000.051999332948
1000
1000
1000
1000.170420880506
1001.242889271012
1000
1000
1000
1000
1000
1017.980738447975
1000
1038.296419150967
1017.980738314201
1000.170809016434
1032.563025123388
1043.569128097458
1036.345079304154
1000
1000.170809015363
1000
1000
1000.051999333031
1000.245996879436
1043.569128220484
1000.000000603784
1000.109934695829
1000
1000.000000603784
1000
1000
1000.136321364885
1048.888311879365
1028.813655744212
1000
1000
1000
1000.109934696343
1036.345079431214
1028.813655670486
1000
1001.242889273186
1032.563025130116
1000.170420880239
1000
1000.136321363395
1000
1000
1000.000000603784
1043.569127918907
1000.170809015067
1000
1017.980738284549
1000
1032.563025161256
1000
1028.813655862794
1048.888311830471
1038.296419193402
1032.563025165409
1000.136321363125
1038.296418853213
1001.242889266753
1000
1000.114227034305
1000
1000.114227034757
1017.980738435441
1000
1000.170420880641
1000.000000603784
1036.345079290385
1028.8136558113
1000
1000.051999332843
1000
1000
1000.170809017554
1000
1000.245996886311
1000
1000.051999332941
1000
1000.245996870868
1000
1048.88831195736
1048.888311903447
1000
1000
1000
1000
1000
1000
1000
1000
1000
1000
1000
1000
1000
1000
1000
1000
1000
1000
1000
1000
1000
1000
1000
1000
1000
1000
1000
1000
1000
1000
1000
1000
1000
1000
1000
1000
1000
1000
1000
1000
1000
1000
1000
1000
1000
1000
1000
1000
1000
1000
1000
1000
1000
1000
1000
1000
1000
1000
1000
1000
1000
1000
1000
1000
1000
1000
1000
1000
1000
1000
1000
1000
1000
1000
1000
1000
1000
1000
1000
1000
1000
1000
1000
1000
1000
1000
1000
1000
1000
1000
1000
1000
1000
1000
1000
1000
1000
1000
1000
1000
1000
1000
1000
1000
1000
1000
1000
1000
1000
1000
1000
1000
1000
1000
1000
1000
1000
1000
1000
1000
1000
1000
1000
1000
1000
1000
1000
1000
1000
1000
1000
1000
1000
1000
1000
1000
1000
1000
1000
1000
        </DataArray>
        <DataArray type="Float64" Name="density_prev" format="ascii">
1000.284212575997
1000.819318960282
1000.196069902786
1000.577449748731
1000.789093794243
999.8029107338297
1000.60204578467
1000.602044573696
1000.789092487106
1003.591156250435
1000.015065362651
1000.577449019284
999.0916801313308
999.7695719278981
996.9306867399558
999.246478618446
999.059465680057
1000.604058586457
996.6485238291187
1000
1000.793819690738
1002.612772210896
1000.604060132197
999.0594690192645
999.0594676756872
1000.401204240409
999.0594665801791
1000.097269933216
1000
1000
1000
1000
1000
1000
999.0916815940354
1000
1001.579627793519
1000
999.7501432603181
999.7501425426717
1000
1002.220400739899
1002.612770890744
1000.087464985766
999.9172637140583
1000
1000.087464926485
1000
1000
1000
1000
1000
1000
1000
1000
1000
1000
1000
1000
1000
1000
1000
1000
1000
1000
1000
1000
1000
1001.137232093161
1000
1000
1000
1000
1000
1000
1000
1000
1000
1000
1000
1000
1000
1000
1000
1000
1000.819318396571
997.2573571908871
999.7695725407225
1000.789090761004
999.4789246577211
1000.604057087748
1000
1000
1000
1002.633368423335
1014.353345374835
1001.055233724018
1000.805324499094
1000
1000
1000
1000
1000
1000
1000
1000
1000
1000
1000
1000
1000
1000
1000
1000
1000
1000
1000
1000
1000
1000
1000
1000
1000
1000
1000
1000
1000
1000
1000
1000
1000
1000
1000.879862328052
1000
1000.465720105
1000.805324541886
1001.055233706837
1014.353345825944
996.6485222800485
1000.879862800565
1000
1000
1000
1000
1000
1000
1000
1000
1000
1000
1000
1000
1000
1000
1000
1000
1000
1000
1000
1000
1000
1000
1000
1000
1000
1000
1000
1000
1000
998.3222584204401
998.9123200547361
997.5243967273515
1000
999.0916807863579
1000
1000
1000
999.0916795495261
1000
1000
1000
1002.548759889647
1000
997.3564005551021
997.3563994731189
1002.88178353197
1000.183668921368
999.1256181650853
1000.623469973568
1000.623471331152
996.7493897437438
996.7493889123634
1000
1001.400648980664
1000
996.7313575497019
1000
1001.949666266191
1000.602045337596
997.8944417991316
997.8944417905952
1002.548760459626
1000.401201730317
1000
1007.149121704261
999.219986469583
1000.107062283454
1000.790012837172
1000.627309762992
1000.602046604893
1001.400647928305
999.5724809157831
1000
999.8160246206425
1000
1000.139738519005
999.2869004378695
999.2869016937915
1000.139739809457
1000.820396087417
1000.139737636237
1000.427801369052
995.9230611983645
1000
1000
999.6370855448479
1000.427801895853
999.6370858551717
1001.843711016428
1000
1000.46954420943
1001.843711129195
995.9230544512512
996.7756870669131
995.9230569376078
996.8641692198725
1001.949664837424
1000
999.0044950167227
1001.843714209857
1000.015064866473
996.8641695588695
999.8160231269601
1001.843714143631
999.6370854829602
1000
999.0044967960013
999.637085438598
1000
1000
1000.002910295849
1000
1000.000079932226
1002.085731350335
1000.183668311267
1000
1000
1000
1000
1000.427803528747
1000.097271619974
1000.42780292329
1000.10706438617
1000.13973522285
997.8944512401087
997.894451307959
1000.627312980054
1000
999.7501418086003
999.9172612892951
996.7756858682251
999.7501414607867
996.7313558119926
995.9230574190326
1000
999.1256194210049
1000
1002.220402358225
1000
1000
1000
1000
1000
1000
1000
1000
1000
1000
1000
1000
1000
1000
1000
1000
1000
1000
1000
1000
1000
1000
1000
1000
1000
1000
1000
1000
1000
1000
1000
1000
1000.000079932667
1000
1000
1000
1000
1000.879862805131
1000
1000
1014.353346594662
1001.055232823396
1000.805323196981
1000.465719858999
1000.469546315665
1000
1000.879863698673
1000
1000
1000
1000
1000
1000
1000
1000
1000
1000
1000
1000
1000
1000
1000.627312510312
1000
1000
1000
1000
999.2869008100696
1000
1000
1000
1000
999.2869023090628
1000.820396221122
1000.793819017525
1000.805323237388
1001.055232841141
1014.353347886451
1002.633369232114
1000
1001.13723259453
1000.002910294774
1000.08746349844
1000.087463314726
1000
1000
1000
1000
1000
1000
1000
1000
1000
1000
1000
1000
1000
1000
1000
1000
1000
1000
1001.579627098798
1000
1000
1000
1000
1000
1000
1000
1000
1000
1000
1000
1000
1000
1000
1000
1000
1000
1000
1000
1000
1000
1000
1000
1000
1000
1000
1000
1000
1000
1000
1000
996.9306861356201
1000
1000
1000
1000
1000
1000
1000
1000
1000
1000
1000.002910302039
1000.000079932964
1000
1000
1000
1000
1000
1000
1000
1000
1000
1000
1000
1000
1000
1000.107062057101
1000.623471462762
1000.623469427899
997.5243915379929
998.9123154373142
996.7493927589239
1002.633369697312
1000
1000
1000
1000.40120410197
996.749391750932
1007.149101070157
1002.881783268972
1000.469545175694
996.8641674958626
1001.137233175482
1000
1000
1000
1000
1000
1000
1000
999.0044963694958
1000.820397215954
996.6485252624694
999.4789212748763
999.2464780155285
1002.220400747508
998.3222681147053
999.8160248495221
996.7756861993383
1002.220401751625
1002.085732937899
999.8160237958095
999.7695723648814
1000.789090245048
996.648522828303
999.4789242497087
1000.604057003403
999.4789242347209
999.7695721382314
1000.820396392671
1003.591158726122
999.2464776196126
1000
1000
1002.633367926211
1000
999.2464796707715
1000
1000
999.2199867067694
1000
1000
1000
999.8029106280363
996.930685662556
1000.790015196577
996.8641715610231
996.7756869315178
999.5724804642332
1000.107063663915
1000.62731056895
997.257356424568
1000.284215591436
1000.196069638537
1000.469546064788
999.0044957876671
1000
996.9306858951877
1001.137231947336
1000
1000
1000
1000
1000
1000
1000
1000
1000
1000
1000
1000
1000
1000
1000
1000
1000.401202830129
1000
1000
1000
1000
1000
1000
1000
1000
1000
1000
1000
1000
1000
1000
1000
1000
1000
1000
1000
1000
1000
1000
1000
1000
1000
1000
1000
1000
1000
1000
1000
1000
1000
1000
1000
1000
1000
1000
1000
1000
1000
1000
1000
1000
1000
1000
1000
1000
1000
1000
1000
1000
1000
1000
1000
1000
1000
1000
1000
1000
1000
1000
1000
1000
1000
1000
1000
1000
1000
1000
1000
1000
1000
1000
1000
1000
1000
1000
1000
1000
1000
1000
1000
1000
1000
1000
1000
1000
1000
1000
1000
1000
1000
1000
1000
1000
1000
1000
1000
1000
1000
1000
1000
1000
1000
1000
1000
1000
1000
1000
1000
1000
1000
1000
1000
1000
1000
1000
1000
1000
1000
1000
1000
1000
1000
1000
1000
1000
1000
1000
1000
1000
1000
1000
1000
1000
1000
1000
1000
1000
1000
1000
1000
1000
1000
1000
1000
1000
1000
1000.955060489357
999.6655266898474
998.6334968855394
998.3569808740291
1000
1000
998.992628385559
999.7453900687289
1000.087719553942
1000.087719412357
1000
1000
1000
1000
1000
1000
999.5538822930849
999.7132180269232
1000
1000
1000
1000
1000
1000
1000
1000
1000
1000.165091461209
1000.148183146491
1000.148183146904
1000.16478741384
1000.134565968618
1000.170076111812
1000
1001.825056113816
1000
1000
999.7611003969679
1000
1000
1000
1001.452218468523
1000.562559800649
1000
1000.1249018107
1000.402822473688
1000.645725841462
1000.491975008492
1000
1000.238649215381
1000.491975016752
1000
1001.463774709888
999.7365927506007
1001.737243580372
1000
999.5260213092758
1000.270493209842
999.4657377664777
1000
1000
1000
1000
1000
1000
999.7941146372115
1000.28977342314
999.6894817643387
1000.146177513418
1000
999.9806317742374
1000
999.2703463657084
1001.274789081308
1000.334934434584
1000.115679820098
1000
1000
998.757705429144
999.8248083463151
1000.361864883781
999.8284518111756
1000
1000
1000
1000
1000
1000
1000
1000
1000.066991685726
999.9791601460107
1000
1000
1000
1000
1000
1000
1000
1000.224442505676
1000
1000
1000.666179963249
1000.087163511428
1000
1000
999.3572253445353
1000
1028.102423339179
1000
1000
1000
1000
1000
1000
1000
1000.354074194403
1000
1001.224738652065
1000
1000
999.6176032944661
1000
1000.64289272866
997.6497772312173
1000
1000
1000
1000
1000
1000
1000
1000
1000
1000
1000
1000
999.9320768396168
1000
1000.055868745848
999.7910946127853
1000
1000
1000
1000
1000
1000
1000
1000
1000
1000
1000
1000
1000.874922184204
1000
1001.118435628348
999.6388894201683
1000
1000.279582140217
1000
1000
1000
1000
1000
1000
1000
1014.335708497341
1025.149927455736
1000
1000.336604698696
1001.801737435845
1000.110516337395
1000.545853410055
999.7164495288142
1000.545853408787
1000.153038735783
1000
1000.109927227316
1000
1000.206748170326
1000
1000
1000
1000
1000
1000
1000
1000.000000603784
1000.109927228575
1000.114227035067
1000
1000.404577200874
1001.010949499051
999.9077419974354
1000.294305072212
999.8357951547476
999.7767612937228
1000.200512642441
999.9325889718682
1001.076776060307
1000
1000.266731614724
1000
1000
1000
1000
1000
1000
1000
1000
1000
1000
1000.224692435266
1001.039314132794
1001.046540635
1000.016697248868
1000.457444477299
1000.457444479155
999.8865114511442
1000.039465296647
1000.623135999285
1000
1000
1000
1000
1000
1000
1000
1000
1000
        </DataArray>
        <DataArray type="Float64" Name="pressure" format="ascii">
361.8467688164011
1044.796532041392
249.5614455930569
735.8303780484363
1006.162100856138
-250.5632024429625
767.2291386852385
767.2275926689612
1006.160430198215
4617.714034963254
19.16506574496368
735.8294469207973
-1152.302895547844
-292.9181424911652
-3868.614105517808
-956.3680251492467
-1193.055172367729
769.7988423488297
-4220.686575882727
0
1012.202377591821
3349.795194090158
769.8008157759351
-1193.050948575592