<VTKFile type="PolyData" version="1.0" byte_order="LittleEndian" header_type="UInt64">
  <PolyData>
    <Piece NumberOfPoints="1400" NumberOfVerts="1400">
      <Points>
        <DataArray type="Float64" Name="Points" NumberOfComponents="3" format="ascii">
0.07865651980355358 0.1309724879842019 0.03947590500915894
0.1099928410625542 0.1191996076300819 0.05116672791692177
0.07112358539204175 0.1352401584935275 0.0382209644536098
0.09033673716148581 0.1098434267310655 0.008499491013357858
0.07808146029536299 0.1217824289277046 0.02797285065536331
0.1005708480078168 0.1202469140466995 0.05300180314573381
0.1318042524563639 0.122785043753362 0.05597744301277267
0.1227850437399795 0.1318042524373768 0.0559774429962016
0.1097853657378231 0.1157632735615072 0.03003534678758476
0.1275819584649385 0.1358719453130418 0.05975472724361981
0.1358719453210598 0.1275819584404499 0.05975472717490445
0.1474271579735126 0.1375704169904757 0.07407859247231365
0.1375704169773559 0.1474271579533053 0.07407859246017953
0.1060785498394387 0.1158039363039104 0.04419351763898674
0.08234933135203493 0.1264261312925604 0.03582215576081823
0.112947944855582 0.1129479448475468 0.04043689418333642
0.1004662072045282 0.1093741797868701 0.05017019483724387
0.1464738680655599 0.1464738680701739 0.07857956736994753
0.1068481388664718 0.1216975194540726 0.04594056716686722
0.07725213729449866 0.1367503073682507 0.03724184549203102
0.1143798062631115 0.1275818529864431 0.04784853022515829
0.1199469841468091 0.132242843319267 0.04831890944273291
0.1352252271584814 0.1238929585862043 0.0510268052749929
0.1362388333348573 0.1473918432609827 0.07010493544055683
0.1238929586529221 0.1352252271674036 0.05102680528348799
0.0868496626892812 0.1087539742850516 0.00569889842474944
0.1173209570519453 0.1173209570251246 0.03774086712257989
0.1286764552570892 0.1389015672509591 0.05455376951443889
0.1389015673046926 0.128676455322958 0.05455376955785761
0.1322428433416849 0.1199469840906393 0.0483189094056278
0.08211048150900813 0.1208808637114 0.02512777301773933
0.1046436523156701 0.1201060906179072 0.0394916689723384
0.07114419904189116 0.136929345384757 0.03631597329391627
0.110686705609182 0.1182204003959992 0.03464052044324246
0.1105297188930497 0.1298111652404526 0.04301880905859146
0.1473918432917647 0.1362388333520911 0.0701049354613314
0.0825226261380294 0.1362580848495156 0.03745016139098558
0.133949506911025 0.1442019182036804 0.063423243559937
0.1083275033004396 0.1223482451898563 0.01574033661173518
0.1010878068914624 0.1216289060531774 0.03619578694198367
0.1133276258116475 0.1326608252264686 0.03460985471082353
0.1442019181972361 0.1339495068978367 0.0634232435669785
0.115431114724854 0.148261751806421 0.0232592021884703
0.1068948265980797 0.1465333361118445 0.01729740514841884
0.1153579538352381 0.1492374922132216 0.02113914736080751
0.116628947368421 0.1618131578947369 0.09552692307692309
0.1075921052631579 0.1618131578947369 0.09552692307692309
0.116628947368421 0.1618131578947369 0.08676538461538462
0.1075921052631579 0.1618131578947369 0.08676538461538462
0.116628947368421 0.1618131578947369 0.1042884615384616
0.1075921052631579 0.1618131578947369 0.1042884615384616
0.1012489940475629 0.121513708435564 0.01549073338465976
0.1102796018290448 0.1342870673885071 0.0293171799322522
0.07669384069630951 0.1391291714769388 0.03427673504950549
0.1117063059745187 0.1355394667804901 0.02427925616900916
0.1028254665824218 0.1437212972669632 0.02369602592230736
0.1129168196000492 0.1433769646448734 0.02538965229272597
0.1027329167120309 0.1450546844100954 0.01951469959040247
0.1119512647836365 0.1361678727762881 0.003634369038853715
0.1029260250212601 0.1301291478955079 0.04165074789082168
0.1130883678620864 0.1408818453087508 0.01180110400946186
0.1056603888682937 0.1378417911268694 0.006634704595616926
0.1135823350134994 0.1465584180220185 0.01666159436311267
0.1135024323717321 0.1340308720953065 0.000461065028866757
0.08255615097313031 0.1147319782498686 0.01778502215766271
0.1034840526568307 0.1275349234620735 0.02266675472352132
0.1035160298010833 0.1142510037782319 0.01199402720840818
0.116628947368421 0.1618131578947369 0.07800384615384616
0.1157632735655007 0.1097853656505612 0.03003534679014861
0.1306454542644381 0.121091273440052 0.01883836987048872
0.1210912734823795 0.1306454543224678 0.01883836996599047
0.07763537365021698 0.1152155161643313 0.01922668096249756
0.08230723204455652 0.1404403983236381 0.03162304745843335
0.137474891813062 0.1374748918975481 0.03394625037495839
0.07631085355782329 0.1413050076662543 0.02846952472587619
0.1246855133101511 0.1491932164504237 0.02855707345038849
0.1491932164879888 0.1246855133318303 0.02855707344417678
0.1513410296544419 0.1422980272756339 0.0530536229591663
0.1422980272381042 0.1513410296230822 0.05305362294737589
0.1492873602650447 0.1329057974724972 0.03687654617215893
0.1329057974329685 0.1492873602534175 0.03687654614920439
0.07966326276763164 0.1098434267610787 0.008499491120252558
0.1508390747362423 0.1508390747175636 0.06803732786567447
0.0831503373586268 0.10875397427521 0.005698898414501646
0.08208808813582137 0.1410288503537023 0.0229199531697803
0.07600885674668115 0.142523507261844 0.0211763437797845
0.08274036278323695 0.1431252839702582 0.0163692772936681
0.1518589413904119 0.1424220340644343 0.04703766182746368
0.1510162803578986 0.1510162803199022 0.06091826150552634
0.1075921052631579 0.1618131578947369 0.07800384615384616
0.1424220340691695 0.1518589413876815 0.04703766183084192
0.1256657894736842 0.1618131578947369 0.09552692307692309
0.08126913923039204 0.1416212988662301 0.0101624621085357
0.1437394736842105 0.1618131578947369 0.08676538461538462
0.116628947368421 0.1618131578947369 0.0692423076923077
0.1075921052631579 0.1618131578947369 0.0692423076923077
0.116628947368421 0.1618131578947369 0.06048076923076924
0.1075921052631579 0.1618131578947369 0.06048076923076924
0.116628947368421 0.1618131578947369 0.05171923076923078
0.1347026315789474 0.1618131578947369 0.08676538461538462
0.1256657894736842 0.1618131578947369 0.08676538461538462
0.1075921052631579 0.1618131578947369 0.05171923076923078
0.116628947368421 0.1618131578947369 0.04295769230769231
0.07940237354123283 0.1237131572691327 0.007389004269352754
0.07629336025057257 0.1433186219230712 0.01702656522126356
0.1075921052631579 0.1618131578947369 0.04295769230769231
0.06707397489940119 0.1301291479115865 0.0416507479177141
0.116628947368421 0.1618131578947369 0.03419615384615385
0.08048157894736842 0.1618131578947369 0.007911538461538463
0.1075921052631579 0.1618131578947369 0.03419615384615385
0.1051110367544537 0.1409123712317661 0.01074263409836412
0.08048157894736842 0.1618131578947369 0.01667307692307693
0.116628947368421 0.1618131578947369 0.02543461538461539
0.1075921052631579 0.1618131578947369 0.02543461538461539
0.116628947368421 0.1618131578947369 0.01667307692307693
0.1145063912329526 0.1481370351385719 0.01929567290574275
0.1075921052631579 0.1618131578947369 0.01667307692307693
0.1063899572662655 0.1340866951541513 0.03710443400364168
0.116628947368421 0.1618131578947369 0.007911538461538463
0.1075921052631579 0.1618131578947369 0.007911538461538463
0.08048157894736842 0.1618131578947369 0.02543461538461539
0.1070562437527873 0.1450686192481843 0.01456720462950406
0.1061913332850627 0.1326275335831199 0.03937629735749271
0.1065724469823496 0.1235112808505856 0.004858748924244783
0.08048157894736842 0.1618131578947369 0.03419615384615385
0.07144473684210526 0.1618131578947369 0.04295769230769231
0.08048157894736842 0.1618131578947369 0.04295769230769231
0.07144473684210526 0.1618131578947369 0.05171923076923078
0.08048157894736842 0.1618131578947369 0.05171923076923078
0.07144473684210526 0.1618131578947369 0.06048076923076924
0.08048157894736842 0.1618131578947369 0.06048076923076924
0.08089584712922263 0.121570522477057 0.02025516552263552
0.07623206206199377 0.1268468305668343 0.02407801399334707
0.08165937154190142 0.1165807378180117 0.002073735166062359
0.1437394736842105 0.1618131578947369 0.09552692307692309
0.1347026315789474 0.1618131578947369 0.09552692307692309
0.1437394736842105 0.1618131578947369 0.1042884615384616
0.1381404635136348 0.1381404635519553 0.07770857044366336
0.0807922600433106 0.1377107157398134 0.001962553480866758
0.1347026315789474 0.1618131578947369 0.1042884615384616
0.1256657894736842 0.1618131578947369 0.1042884615384616
0.08122363585634941 0.1392779774852521 0.005676992480614955
0.08873086078240859 0.1416212989271769 0.01016246207435884
0.09836325351207498 0.1438431138664212 0.01319748759352407
0.08048157894736842 0.1618131578947369 0.08676538461538462
0.07144473684210526 0.1618131578947369 0.1042884615384616
0.07144473684210526 0.1618131578947369 0.08676538461538462
0.08048157894736842 0.1618131578947369 0.1042884615384616
0.08048157894736842 0.1618131578947369 0.09552692307692309
0.1432090358542157 0.1432090358920044 0.07971926038823779
0.06240789473684209 0.1618131578947369 0.1218115384615385
0.1447288237673816 0.1447288237470586 0.07943397167543473
0.09855526315789473 0.1618131578947369 0.09552692307692309
0.08951842105263157 0.1618131578947369 0.09552692307692309
0.09855526315789473 0.1618131578947369 0.08676538461538462
0.08951842105263157 0.1618131578947369 0.08676538461538462
0.09855526315789473 0.1618131578947369 0.1042884615384616
0.08951842105263157 0.1618131578947369 0.1042884615384616
0.09368914641991095 0.1413050077347144 0.02846952472752302
0.1109164110639373 0.1109164111745807 0.006452277524530853
0.1364907001944591 0.1364907002581646 0.07578383315082833
0.09891716910479571 0.1233019840238564 0.003854761918094395
0.008186842105263157 0.1437394736842105 0.11305
0.1280712500270981 0.1204606651608191 0.05571022116381392
0.08791191187575763 0.1410288504272297 0.02291995310601785
0.0937066397254287 0.1433186219552478 0.01702656513938429
0.09059762642116259 0.1237131573268435 0.007389004258839464
[...]
      <PointData>
        <DataArray type="UInt64" Name="type" format="ascii">
1
1
1
1
1
1
1
1
1
1
1
1
1
1
1
1
1
1
1
1
1
1
1
1
1
1
1
1
1
1
1
1
1
1
1
1
1
1
1
1
1
1
1
1
1
0
0
0
0
0
0
1
1
1
1
1
1
1
1
1
1
1
1
1
1
1
1
0
1
1
1
1
1
1
1
1
1
1
1
1
1
1
1
1
1
1
1
1
1
0
1
0
1
0
0
0
0
0
0
0
0
0
0
1
1
0
1
0
0
0
1
0
0
0
0
1
0
1
0
0
0
1
1
1
0
0
0
0
0
0
0
1
1
1
0
0
0
1
1
0
0
1
1
1
0
0
0
0
0
1
0
1
0
0
0
0
0
0
1
1
1
1
0
1
1
1
1
1
1
1
1
1
1
1
1
1
1
0
0
0
0
0
0
0
0
0
0
0
0
0
0
0
0
0
0
0
0
0
0
0
0
0
0
0
0
0
0
0
0
0
0
0
0
0
0
0
0
0
0
0
0
0
0
0
0
0
0
0
1
0
0
0
0
0
0
0
0
0
0
0
0
0
0
0
0
0
0
0
0
0
0
0
0
1
1
1
1
1
1
1
1
1
0
1
0
1
1
0
1
1
0
1
1
0
1
1
0
1
1
0
1
1
1
1
1
1
1
1
1
1
1
1
1
1
1
1
1
1
1
1
1
1
1
1
1
1
1
1
1
1
1
1
1
1
1
1
1
1
1
0
1
1
0
0
1
1
0
1
1
0
1
1
1
1
1
1
0
1
1
1
1
1
1
1
1
1
1
0
1
1
1
1
1
1
1
1
0
0
0
0
1
1
1
1
1
1
1
1
1
0
1
0
1
1
1
1
1
1
0
1
1
1
1
1
1
1
1
1
1
1
0
1
1
1
1
1
1
1
1
0
1
1
1
1
0
1
1
1
1
1
1
1
1
1
0
0
1
1
1
1
1
0
0
1
1
1
1
1
1
0
0
1
1
0
0
1
1
1
1
1
1
1
1
1
1
1
1
1
1
1
1
0
1
1
1
1
1
1
1
1
1
1
1
1
1
1
1
1
1
1
1
1
1
1
1
1
0
1
1
1
1
1
1
1
1
1
1
1
1
1
0
1
1
1
1
1
1
1
1
1
1
1
1
1
1
1
1
1
1
1
1
0
0
0
0
0
0
0
0
0
0
0
0
0
0
0
0
0
0
0
0
0
0
0
0
0
0
0
0
0
0
0
0
0
0
0
0
0
0
0
0
0
0
0
0
0
0
0
0
0
0
0
0
0
0
0
0
0
0
0
0
0
0
0
0
0
0
0
0
0
0
0
0
0
0
0
1
1
0
0
0
0
0
0
0
1
1
1
1
1
1
1
1
1
1
1
1
1
1
1
1
1
1
1
1
1
1
1
0
1
1
1
1
1
1
1
1
1
1
1
1
1
1
1
1
1
1
1
1
1
1
1
1
0
0
0
1
1
0
0
0
0
0
0
0
0
0
0
0
0
0
0
0
0
0
0
0
0
0
1
1
0
0
0
1
0
1
0
1
0
0
0
0
0
0
1
0
1
0
0
0
0
0
0
1
0
0
1
1
0
0
0
0
1
1
1
0
1
1
0
0
1
1
0
1
1
1
1
1
1
1
1
1
1
1
1
0
0
1
1
1
1
1
0
1
1
0
1
1
1
1
1
1
1
1
1
1
1
1
1
1
1
1
1
1
1
1
1
1
1
1
1
1
1
1
0
1
1
1
1
1
1
1
1
1
0
0
0
0
0
0
1
1
1
1
1
1
1
1
1
1
1
1
1
1
1
1
1
1
1
1
1
1
1
1
1
0
0
1
1
1
0
1
0
0
1
0
1
0
1
1
1
0
0
1
0
1
1
1
1
1
1
1
1
1
1
1
1
0
0
1
1
1
1
0
0
1
1
1
1
1
1
0
0
0
0
0
0
0
1
1
1
0
0
0
0
0
0
0
1
1
1
1
1
1
1
1
0
0
0
0
0
0
0
0
0
0
0
0
1
0
0
1
1
1
1
1
1
1
1
1
1
1
1
1
1
1
1
1
1
1
1
1
1
1
1
1
1
1
1
1
1
1
1
1
1
1
1
1
1
1
0
1
0
1
1
1
1
1
0
1
1
0
1
1
1
0
1
1
1
1
0
1
1
1
1
1
1
1
1
1
1
1
1
1
1
1
1
1
0
0
1
1
1
1
1
1
1
1
1
1
1
1
1
1
1
1
1
1
1
0
0
0
0
0
1
1
0
0
1
1
1
1
1
1
1
1
1
1
1
1
1
1
1
1
1
1
0
0
0
0
0
0
0
0
0
0
0
0
0
0
1
1
1
1
1
1
1
1
1
1
1
1
1
1
1
1
1
1
1
1
1
1
1
1
1
1
1
1
1
1
1
0
1
1
0
1
1
1
1
1
1
1
1
1
1
1
1
1
1
1
1
1
1
1
1
1
1
1
1
1
1
1
1
1
1
1
1
1
1
1
1
1
1
1
1
1
1
1
1
1
1
1
1
1
1
1
1
1
1
1
1
1
1
1
1
1
1
0
0
0
0
0
0
0
0
0
1
1
1
1
1
1
1
1
1
1
0
1
1
1
1
1
1
1
0
0
0
0
0
0
0
0
0
0
0
0
0
0
0
0
0
0
0
0
0
0
0
0
0
0
0
0
0
0
0
0
0
0
0
0
0
0
0
0
0
0
0
0
0
0
0
0
0
0
0
0
0
0
0
0
0
0
0
0
0
0
0
0
0
0
0
0
0
0
0
0
0
0
0
0
0
0
0
0
0
0
0
0
0
0
0
0
0
0
0
0
0
0
0
0
0
0
0
0
0
0
0
0
0
0
0
0
0
0
0
0
0
0
0
0
0
0
0
0
0
0
0
0
0
0
0
0
0
0
0
0
0
0
0
0
0
0
0
0
0
0
0
0
0
0
0
0
0
0
0
0
0
0
0
0
0
0
0
0
0
0
0
0
0
0
0
0
0
0
0
0
0
0
0
0
0
0
0
0
0
0
0
0
0
0
0
0
0
0
0
0
0
0
0
0
0
0
0
0
0
0
0
0
0
0
0
0
0
0
0
0
0
0
0
0
0
0
0
0
0
0
0
0
0
0
0
0
0
0
0
0
0
0
0
0
0
0
0
0
0
0
0
0
0
        </DataArray>
        <DataArray type="Float64" Name="density" format="ascii">
1002.086482921502
999.5883415835541
999.7389723711184
1002.932789283439
1000.484997892215
998.935513939599
998.9503907795564
998.9503912472156
1002.967410827387
998.8162394092052
998.8162391256577
1000.068145280411
1000.068145184368
996.7402428528834
1000.716832229249
998.8527657092666
1001.554176553056
999.5689269376718
999.3398527751373
999.0102773661706
1002.579172260618
1000.530520183848
999.5805144592359
999.2654586827998
999.5805146123593
1002.934799961633
1002.53529838875
999.4583037816953
999.4583037197986
1000.530520527681
1003.039507155178
1000.086806457012
999.4891094928118
1002.324009872749
996.6190344873912
999.2654587441126
997.7486400066263
1000.976508699145
992.8677856272683
1000.189219158141
1002.956898523549
1000.976508564765
990.1457036470789
997.1308735033197
989.8463838376383
1000
1000
1000
1000
1000
1000
1001.532921867873
1004.164776209734
999.3058938391908
1013.160451184996
986.142821755309
987.8189776141442
1003.480539966054
996.8390639855356
1001.863054892126
1001.866862658798
1002.00133562998
1001.431087217235
996.1820678292798
1000.113831302612
988.2801446713651
998.8251015363689
1000
1002.967410563598
1002.63205362348
1002.632053941724
1000.958809992844
1000.445160459645
993.9122142754867
999.0313730939439
997.7676976544158
997.7676973574081
1000.297768361479
1000.29776876967
1001.28931146475
1001.289311622992
1002.932790501755
998.237107432001
1002.934800473378
1006.832833992608
1003.92315567094
986.6649967748359
997.9929980747711
1000.419606284881
1000
997.9929984704789
1000
1000.223747365915
1000
1000.301348626514
1000
1000.000603757087
1000
1000
1000
1000
1000
1000
1000.156778887534
998.5456021090812
1000
1001.863054245005
1000
1001.470001966555
1000
1001.800497289935
1000
1000
1000
1000
1001.662239517342
1000
999.3460168889784
1018.644218673001
1020.218743602819
1000
998.0467137083839
1000.832533313607
997.1620186276851
1000
1000
1000
1000
1000
1000
1000
989.8916883965304
997.8788322734415
998.9298013895419
1000
1000
1000
1000.328630314508
997.8977702425587
1000
1000
1001.620905638239
1000.223746720453
992.0594852436366
1000
1000
1000
1000
1000
999.3507229962827
1000
999.3224277794615
1000
1000
1000
1000
1000
1000
999.0313736801153
999.9152169739791
1000.80819332864
1001.395178777651
1000
999.5005497954132
1006.832833753506
998.5456024621355
1000.156778828476
1005.602455196148
1003.9231544601
1001.187710143956
986.6649966338319
997.8788321876848
999.686188339108
999.6861895591087
997.613316618355
997.6133177277796
999.0326242455064
1001.678039347126
1014.332012905349
1000.195696278707
1002.361642132694
1000
1000
1000
1000
1000
1000
1000
1000
1000
1000
1000
1000
1000
1000
1000
1000
1000
1000
1001.037835625201
1000
1000
1000.009818638973
1000
1000.575553563301
1000
1000
1000
1000
1000
1000
1000.992554039993
1003.14403115068
1000.104308566679
1000.081693192349
1000
1000.57555347192
1000.923284706105
1002.361642374231
1000.195696383564
1014.332012891284
1000
1000
1000.081693093398
1000
1003.144031306736
1000.992553815929
1000
989.8916886787199
1000
1000
1000
1000
1000
1000
1000.009818580101
1000
1000
1000
1000
1000
1000
1000
1000
1000
1000
1000
1000
1000
1000
1000
1000
1000
998.6429871480905
999.4755145688252
996.1057241276254
1001.107415269594
1001.166285803089
997.8969038641783
999.439816721754
999.4398167336336
998.929800970709
1001.678038867631
999.9779827513951
1001.03783480366
999.5005503934814
1000.6280551035
1000
999.9779827055136
999.6693369154355
1000
1000.664720243246
1000.526063421456
1000
1000.098888195502
996.882622714417
1000
998.9355147354191
1000.62805535018
1000
999.9098211488722
1000.448831121389
1000.448831033201
1004.225516837759
998.7439369314025
998.743934850353
1000.277805983803
1000.277804936176
1001.490457578385
1001.268457207279
1001.992660024762
1001.332972022608
1001.332972573579
997.4395618189309
1000.799894636148
999.6982577371767
996.3616081870362
996.3616083047449
999.6982576157226
1000.010902772898
996.8552283913727
999.7389446047871
1008.501626789037
1008.501626710864
997.9738006958195
1000.28086312
1002.570668252868
1000.08554051362
992.7916850666487
992.7916851101259
1009.310608473116
999.0282030987348
999.0282032615997
998.1759516972998
998.1759516272565
1000.814175201045
998.4429164030712
998.4429166810922
998.4212867194057
1000
1000.664931011934
996.1990700220457
1000
1000
1000.594091444127
1000.594091706299
1000
999.8248555394712
999.8248555740819
1000
1000.189734469377
999.6413885588331
1004.86697151507
1004.866971916103
1000.93524903272
1000.935248444376
1000
997.8561601157478
1001.138053290269
1000.418397456404
1007.178629165006
1003.346974185629
999.909821955877
1000.275379257406
1000.011696385127
1000.011696189879
1001.107415293212
1000
999.6578360399351
997.897771088212
998.8292980877089
999.7389446916243
1000.945595087686
1000.945594417687
998.4605879086968
998.4605875825805
1000
1000
1000
1000
998.566879471787
997.5157625116253
997.5157628351368
1002.060625197097
1000.181043005976
1002.060625188136
1000.181043213733
998.358279822333
994.8495903576522
1000
994.8495899811871
1000
1001.869665406105
1001.991692607083
998.7644199923172
998.3582797274759
1001.869665413596
997.4147854639557
1000
1004.456851633648
997.4147866922247
1000.048692764753
1000.301066626707
1003.346973305312
1000.301067161151
1000.429360941223
1001.257028222268
981.9886821722497
1000.276885111813
1001.991692478199
1000
1000.208908051143
1004.456852168294
1001.138053209544
998.0046712123104
999.6413875660702
1001.257027402138
1001.849900649983
994.0817514669793
1000
1001.187709638957
1001.849899330705
994.6708941182775
999.9059757430878
1000
999.9059765281198
1007.01957823153
1000.899243156849
1001.682345239773
1000.95880980915
1000.812654806788
1000.113831356767
1000.484996758581
999.669339067384
1001.470002071284
1009.998412592926
1003.039507057119
1001.468886475853
1002.086485291729
1000.058894004316
1001.620905805926
1000
1000
1000.716831881805
999.7389730175368
999.0102773087624
1000.579536720846
1001.268457666269
997.7486397031778
1000
1000
999.4891098503836
999.3058934862506
1000
1000
1000.445160979096
1000.502144650254
997.1620178433659
998.0467138896538
998.3582796583208
998.4605881748375
998.4605880933256
1000.945595097498
1000.945594763132
998.3582798717665
986.1428193959323
1000.011696376239
1000.011696554011
1000.812655073912
992.7916844194169
992.791684366701
1000
1000.935248078792
1007.178628635998
1001.431086759154
1000.594091828273
1001.66223953645
1000.935248488401
1004.866971147787
1004.866971601719
999.8248550685388
999.8248554161947
1001.80049688532
1000.594091746351
1000.502144368128
999.3460174957015
998.4429163861414
998.4429166263436
997.8561595619104
1002.001334941884
1000.280862996606
1002.956898395598
1009.310608917413
1002.570667761029
996.199071209411
1008.501626872109
1000
1003.346973574743
1003.346974021262
1001.332972141938
1008.501626869805
994.8495903404756
994.8495902495587
998.4212870245738
994.6708937466641
999.9059761159532
1001.532921807418
997.7676975253884
989.8463836626007
996.1820670048355
1000
993.9122139203105
999.9059755677114
999.0282032744252
999.0282028682359
1004.225517261145
996.3616081254401
996.3616082676533
1001.166284592748
999.4755148750661
1000.277805006203
1000.277806048114
997.4395615891003
999.6861896016457
999.0326242401648
999.6861885264705
997.8969034844806
996.105724302239
998.6429870073952
1005.602454062517
997.7676980058247
1000
1000.000603756748
1000
1000
1000
1000
1000
1000
1000
1000
1000
1000
1000
1000
1000
1000
1000.00981864987
1000
1000
1000
1000
1000
1000
1000
1000
1000
1000
1000
1000
1003.144031271595
1000.992554090164
1000
1000
1000
1000
1001.037834579885
1000.575553468844
1000
1000.081693202634
1001.678039293679
1014.332012871629
1000.195696154548
1002.361642090064
1000.923284761984
1001.037835497029
1000.575553340609
1000
1000.081693221493
1000.104308569444
1000
1003.14403122101
1000.992553684364
1000
1000
1000
1000
1000
1000
1000
1000
1000
1000.009818588615
1000
1000
1000
1000
1000
1000
1000
1000
1000
1000
1000
1000
1000
1002.060625321765
1002.060625286084
1002.361642315202
1000.195696285407
1014.332012880155
1001.678038896727
1018.644218338224
1020.21874386297
1009.998412697605
997.6133176997758
999.4398167896026
999.4398166540277
997.6133169131664
1001.86686359015
998.7439360936577
998.1759517142044
996.8390622046315
1000.010902284641
1001.332971818814
999.6982580083015
999.6982577718032
1001.490457359064
998.7439339164983
998.1759515726638
1003.480541912439
990.1457028380217
997.9929979165231
997.9929979053965
981.9886824276413
1002.632053781014
1002.632053769391
997.1308738911338
1000
1007.019577947937
992.8677840791009
1001.682345669821
1004.164776069332
992.0594853580332
1001.395177527139
997.9738016284771
1004.456851808279
1004.456851915185
1001.289311890335
1001.289311746838
1013.160451674938
988.2801446078347
994.081750925392
998.0046715356701
1001.991692816156
1001.991692302758
987.8189780247945
999.3507230864531
1000.530519571835
1000.814175259243
1001.187709988541
1001.138053127206
1000.57953736904
1000
1000
1000
1000.41839711927
999.2654582355267
1000
1000
1000
1000
1000
1000
1000
1000
1000.301348617152
1000
1000
1000
1000
1000
1000
1000
1000
1000
1000
1000
1000
1000.832533304347
999.6413881649399
1000
1000
1000
1000.301066908429
1000
999.3398538659812
1000
1001.257027282984
1000
1000
1000
1000
1000
1000
1001.138053107219
1000
999.6413885008103
1000
1000
1000
1000
1000
1000
1001.849898260021
1000
1000
1001.187710204945
1001.849899777245
1000
1000
1000
1000
997.4147856936963
997.4147863292498
999.3224277345101
1000
1001.869665621044
1001.86966583877
1000
1000
1000.419606680551
1000.189734952413
1000
1000.29776863327
997.5157627005843
1000.276885390427
998.7091368958231
998.2371075044056
997.5157626571551
1000.085540769308
999.7389448355199
999.977982796378
998.5668793772788
1000.301066749335
999.5005501758839
1000
1000
1000.6647205398
998.8292979391515
1000.297768554593
1000.181043554026
1000.181043525965
1000
1001.257028207314
999.9779828592626
1000
999.7389448527223
999.5005501704243
1000.976507881753
1000.976508161503
996.6190352918853
1002.324009968766
1000.086805765269
999.4583034911204
999.4583035023189
1002.535298236359
999.5805142476617
999.5805141177268
1000.530520727257
999.265458195567
1002.579171626089
999.5689261883697
1002.292977740603
1000.068144882125
1000.068144946625
998.8162396139211
998.8162394876061
998.9503909133864
998.9503910753456
999.5883401776631
1000.808193648916
1000.208908457354
1000.429360994159
1000.664931331107
1000
1000.048693023977
999.6578365085387
1000.328630632296
1000.275379416262
1000.189218683037
1000.0988881076
996.8826232823512
1000.799896128885
1000.526064708875
1000
1000
1000
1000
1000
1000
1000.469491409395
998.0467135939458
1000.812654746841
1000.54849234683
1001.62090592126
999.346016901086
1000.814175025751
1001.662239439005
998.7091366543682
999.5883410641418
1002.292977212429
996.7402425739924
998.8527657879072
1001.554177137625
1001.800497440497
1002.579171867644
1000.484997648386
998.1125025571675
1000.086806123736
1000.502144677511
1002.324010155453
996.6190346450222
997.8977714170487
998.9355140421369
1001.86305505296
1000
1000
1002.96741114069
1002.967411084976
1000.83253335745
1000
1002.956898312195
1000
1000
999.3398526923702
1000
998.7644197006466
1000.301348619879
1000.223747059858
996.8552283934213
999.0313741251487
1000
1000
1000.418397485052
1000
1001.554176390371
1001.866862832617
996.8390638809516
1001.431087467571
1002.001335726286
996.1820675125718
997.162018040596
1001.682344985456
992.059485731272
1002.932789242589
1006.832834017696
1005.602454894575
1000
1000
997.1308738951724
990.1457038932386
1003.48054070105
994.1568356429879
1000
1000
1003.039507288819
992.8677853134482
1002.570668624919
986.1428195945693
1001.395179001529
1000.526064018042
1009.998412602015
1000
1000
1000
1000
1000
1000
1000.799895089516
999.669338632724
1001.477622204095
1000
1000
1000
1000
1000
1000
1001.47000192873
999.4891098810923
1000.958809866079
1001.532922086408
1000.113831290034
989.8463836921404
994.1568360367595
1000.899243206065
1001.992659602857
1020.218743791247
1018.6442187339
1000
1000
1000
1000
1000
1000
1000
1000
1000
1000
987.818977384495
1000
1000.000603757206
995.0006943179351
1001.468886355355
1002.098088882428
997.8788323309604
1002.098088786464
1000.280862978218
1000.098888122467
998.9298010477843
996.8826225895812
999.9152172622126
999.3058934026649
1000.189218459003
998.0046715169683
996.0113390265259
988.2801445657948
1013.160450886638
999.9764317871401
1002.086484743257
998.8251019980913
998.825101524604
1000.058894269849
1000.628055430918
1000.628055110343
999.9098211704597
999.9098221665159
997.9738009341044
1000.448830770675
1000.448830909312
1001.107415315967
998.1125020689258
1000.156779293873
998.5456029768109
1000.113831320994
1000.156779083033
1000.484996919639
1002.934800421961
1000.548492079863
999.0102772269929
1003.923154304233
1000
999.7389730980209
1000
1001.477622417708
1001.107415219374
1002.932790437281
1000.058893955739
1004.164775761241
1000
1000.636259257564
1002.934799908508
1000
999.580595864481
1003.039507169367
989.8916883301083
1000
989.8916887450274
1001.268457201847
1001.468886440992
1000.958809961081
1000
1001.268457502046
998.9298008976228
1001.992660049764
999.5805959408912
999.9764319561522
1000.548492576752
1001.477622220567
997.3891316903151
999.5805956537602
999.598401841168
999.5984019203981
999.5984021321817
999.5984021556312
1002.09808871615
997.3891316834289
997.3891317358143
1000.636259417578
1000
1000
996.8552287994386
998.7644205643113
1007.019578352795
998.5668792111339
996.7402433089469
1000.469491358958
1000.899243465436
1001.166286695814
1000.814175934913
999.3398537223409
1000.0868056685
1002.32400941005
1002.579171611692
996.6190347585153
990.1457025123907
997.1308735984437
992.0594851286033
989.8463837266657
1000.50214483505
1000
1000
1000
1000
1000
1000.058893934838
1000.526064537249
1000
1009.998412586925
1002.570667540512
1000.812655355636
997.9738013751025
1001.863053717325
988.2801453258149
1000.098888362795
1000.83253312396
997.8788324922061
999.7389727398373
996.8552287218021
999.3460174936332
999.5883403945043
999.4891097722228
999.3058938000453
1001.395177434169
1001.532921780169
1002.956898287612
996.1820681454204
1020.218743859249
1018.644218258854
1000
1000
1000
1000
1000
1000
1000
1000
1000
1000
1000
1000.000603756717
999.0313726036225
996.8390617366586
1001.431086440651
1003.923156021064
1000.79989618254
1001.554177150978
1001.866863444291
1002.001334851596
1005.60245380904
1000.280863024965
1001.80049677182
1001.662239549018
992.8677844364439
1013.160451845241
986.1428193071098
998.8251022479593
1001.468886425009
999.6693374922035
998.0467141089379
997.162018402207
996.8826238522307
1000.899243272286
1004.164776538534
1001.992659636671
1003.480542565013
987.8189782815274
998.0046709706959
1001.682346120268
998.1125023943724
1001.268457565941
998.1125027392382
1000
999.9764319165533
1000.189219334951
1000
1000.636259160393
994.1568360646027
997.3891315987393
1000.636259224428
999.5984018333291
999.5984017682007
999.5984017103139
999.5984019346635
1001.477622089457
1001.477622592019
1001.477622378079
1000.548492007457
1000.548492415415
1000.548492135973
994.1568356316099
997.3891315689692
997.3891316600183
999.580595979503
999.580595768712
999.5805958358771
1002.0980887757
1002.098088795655
1002.098088818335
996.0113388924099
995.0006936995934
999.0102774438983
1000.716831650887
1000.156778993691
997.7486401673664
1002.932789936722
1000.484997252884
1000.11383123294
1002.934800304496
986.6649966885327
999.0102772853131
1003.039507268705
1002.934800463855
989.8916885981743
1000.958809724984
1000.958809781135
998.9298014119559
998.9298011830097
1000.716831667
1000.445160565136
1006.832834140008
1000.445160686037
1006.832834274481
986.6649966091883
1002.086484189037
1000.22374668958
1000.223746518773
1000.156778675596
997.7486404056137
1000.113831259098
1003.039507165006
989.8916884777165
1002.932790398633
1002.086484164195
1000.484997284438
1001.620905503342
1001.620905745673
1001.268457665331
1000
1000
1000
1000
1000
1000
1000
1000
1001.470001413731
997.8977705030594
997.8977710228348
1000.62805558375
1000.628055308811
999.9098222974937
999.9098215816625
1000.448831170691
1000.448831153622
998.5456021201499
999.9764320273229
1000
998.9355149435816
1007.01957770107
1000.418396561418
998.5668793180314
998.7644207821892
996.7402435474422
1001.166284000593
1000.051999332941
1000
1000
1000
1000
1000
1000.166761679647
1000
1000
1000
1000.051999332843
1000
1028.360878509305
1035.541047755331
1000.000000603784
1000.170420880641
1000
1016.669297413916
1000.114227034757
1000
1000.114227034305
1000
1001.244424400597
1036.492874277132
1000.134882543309
1030.490839746371
1000
1036.492874299315
1000.16676167989
1000
1037.948437689932
1000
1000
1000
1000
1000
1000
1000
1000
1000
1000
1038.007997546299
1000
1028.360878503023
1000
1000
1000
1030.490839798557
1000
1000
1000
1000
1016.669297336358
1000
1000
1000
1000
1000
1000.166761679234
1037.948437648976
1000