<VTKFile type="PolyData" version="1.0" byte_order="LittleEndian" header_type="UInt64">
  <PolyData>
    <Piece NumberOfPoints="3513" NumberOfVerts="3513">
      <Points>
        <DataArray type="Float64" Name="Points" NumberOfComponents="3" format="ascii">
0.03498370654161298 0.01757816480061818 0.05603747363537542
0.03702017665789371 0.02751241377921859 0.04728879569091753
0.08918939566584561 0.07195512428027047 0.0779927023954845
0.08081060433346719 0.07195512428008283 0.0779927023951912
0.08917158918765956 0.06315018140886317 0.07995202772391363
0.08082841081165031 0.06315018140851619 0.07995202772401537
0.08904362728249278 0.05473427209257991 0.08252500037803034
0.08095637271730838 0.05473427209276775 0.08252500037777512
0.08920912370437277 0.04511721053207216 0.08978341512000887
0.08079087629526709 0.04511721053199236 0.08978341512009523
0.07239600766006389 0.04532839158850555 0.08969370293683485
0.08981433758010066 0.07269840950849023 0.0696623756215312
0.08018566241921241 0.07269840950880124 0.06966237562132123
0.08971848991238894 0.06280892280930987 0.0711503780653998
0.08028151008729296 0.06280892280919215 0.07115037806654283
0.08944645911339906 0.05496870070308408 0.07365202687873137
0.08055354088629536 0.05496870070333518 0.07365202688032829
0.08033563318315425 0.04497940722063672 0.08184362870922311
0.07270992575512118 0.04547963454073176 0.08110273747876877
0.0637831193351303 0.04538816772426602 0.08302116304614283
0.05611763486248607 0.04638686624516269 0.08359365299509085
0.04656806098530752 0.04656806098513734 0.09020764594845246
0.08927344275294889 0.05421933133116449 0.06367262123120057
0.08072655724743925 0.05421933133027328 0.06367262123110407
0.08060228315314695 0.04498806939722447 0.07094036871049761
0.07232240971531984 0.04507500075110338 0.07142762077103586
0.06364145272241468 0.04537270195438565 0.07277576861746056
0.08953390991224647 0.02694674973121269 0.09414239578729028
0.05563186269896426 0.04598827093139016 0.0747329716847253
0.04657370244863918 0.04657370244819564 0.08053039448062092
0.04627401724397323 0.0292092724067178 0.1152730975384575
0.04581161262739487 0.02804169962237277 0.1080385031655867
0.0463014702634217 0.04630147026332312 0.07243806364073666
0.08962404170910339 0.08037595829068657 0.06922693805609627
0.08966436681659437 0.04497940722043727 0.08184362870841642
0.08934719621584244 0.08065280378407277 0.07773993178127378
0.08961415268528318 0.08038584731467485 0.05837594538471448
0.08980041772851666 0.08019958227120011 0.04949273935613722
0.08925735934738571 0.08074264065127226 0.03948447957353939
0.08996637896914922 0.08003362103009269 0.03068177319357625
0.09003836117337306 0.07996163882694016 0.01863560470542359
0.0893334489758239 0.08066655102297396 0.009185569915707143
0.08033821874429295 0.02637234352819492 0.0690341138580071
0.07187880364487689 0.03617725636157181 0.06582766458217107
0.05595714842639223 0.03867459406100113 0.02559761792970842
0.08942797554879332 0.03652751893387589 0.0831677226616865
0.063200282343344 0.0361914714888039 0.06700758555054645
0.08044593450006773 0.01798423948509119 0.07665542997619808
0.06389392924139937 0.03923849678821276 0.02238360802737221
0.08065486530769246 0.03992729097267 0.01981509274614674
0.07197024252285909 0.03958217485012585 0.02085331061306612
0.05476361460039338 0.03678176406105196 0.05170291485317338
0.05872868945356843 0.04808666349364919 0.01126868049822459
0.08033571463356828 0.04728084154457927 0.005580966333549113
0.06359156195005526 0.04708858595924999 0.007840886036752943
0.0737968553840824 0.04718299097054243 0.00676344242648462
0.07125801512148713 0.0179310795726976 0.07748584279195908
0.07158685204439973 0.02636104948819976 0.06974060011928523
0.0807864709671548 0.02550817488658098 0.03609109684936452
0.08061847062833119 0.02639689718455635 0.04275034574281921
0.05460218258729155 0.03668741003295303 0.06885346731354806
0.06235158475745949 0.0264685873149698 0.07059438036906716
0.0631310706792854 0.03642896581182647 0.04958980283298996
0.07175095120775773 0.03644930599554414 0.04820454746554493
0.08053033639244198 0.03648245600692494 0.04765689950037895
0.06220223632182315 0.0178826359177614 0.07867808937106061
0.05278120864412379 0.0177037166775205 0.08081721159828152
0.0438070117751328 0.01766328916263744 0.08432354598480166
0.08053329339903055 0.01800277596279298 0.06758339446195689
0.08054345648723533 0.0259818225535148 0.02721931096815494
0.04383543079715824 0.01768966552576714 0.09259704305027518
0.04642309077637803 0.04642309077698391 0.04526323952114306
0.08094446887199969 0.04051190931181686 0.009502235967672005
0.0449963390728419 0.02695827663422395 0.05888179137397025
0.05378629355267892 0.02621556155647599 0.05585670969434778
0.06232750778626529 0.02632471348087745 0.05347387194692517
0.04508474595743011 0.02718464123110534 0.0755331619336741
0.04675109582292542 0.03848117705943228 0.02941191131586025
0.04655692818483369 0.04655692818812504 0.02043191438538211
0.08026861958187338 0.02834466218941974 0.008087441388950138
0.08939771684717934 0.04498806939692827 0.07094036871116867
0.04503393559604399 0.02701852731784193 0.06686368686633935
0.04643073623143035 0.03794302182811846 0.03858221343061007
0.04604341646289929 0.04604341646092792 0.02825518271492341
0.09760399233983703 0.04532839158949502 0.08969370293658828
0.1246716084110299 0.07239600766006048 0.08969370293674252
0.1248827894682792 0.08079087629474888 0.08978341512171133
0.04656874197982966 0.03786576878944231 0.0473162176088796
0.04629091031913351 0.04629091031498036 0.03701539495188814
0.05627848873167992 0.04615179348217593 0.03879467613152545
0.06363130190697115 0.04538406491488901 0.03651444049040949
0.08064079144941821 0.04497670374816233 0.03381050315547145
0.07294539750903255 0.04510416271762965 0.03462056882457775
0.08049427207985833 0.0181723151136132 0.05904224227554156
0.04532792782415841 0.0272435552523911 0.08344257064252944
0.08905603793681263 0.0557036581266774 0.02504593610979903
0.1142339157619581 0.05576608423768827 0.08601465275636315
0.05388801691536021 0.02656118709348563 0.08081362089917721
0.08949387675120918 0.06380998845734448 0.02210771287013264
0.08912541865257259 0.07309830816680118 0.01957393809097599
0.06240470008728057 0.02646177288365318 0.07877819818505426
0.08094396206340917 0.05570365812576571 0.02504593610979083
0.07149611708343608 0.02634574816592251 0.0780646884231329
0.0621556139960036 0.0176571845839656 0.08707840614153396
0.1433134357767401 0.07158959650357584 0.08660792980465089
0.1433071329294308 0.06251263915925971 0.08736741401617333
0.1432034052970793 0.05401635510015206 0.08922736425203012
0.1424003075998722 0.04530764754397934 0.09192180281981079
0.08050612324810073 0.06380998845753953 0.02210771286995059
0.08037247908558535 0.0263194897040761 0.07752368706760465
0.04651658059477045 0.03766969814578883 0.0643540635703418
0.08983737756112178 0.06331285351096681 0.01042468424509297
0.1333504431616891 0.07210099222131518 0.08335920622351936
0.05485191767502403 0.03656671837036601 0.06045423936183887
0.06328009834847703 0.03630641601935941 0.05855794279118861
0.08052489679222539 0.03641933414224671 0.05684337118921957
0.07200755576998069 0.03639135734124131 0.057143254744592
0.04395791235173572 0.01788848848768467 0.100861758781309
0.08087458134708062 0.07309830816664914 0.01957393809167031
0.08076176670464394 0.04505934652553762 0.02609198951034239
0.1320337085229265 0.04682556372379315 0.08171647079381533
0.08900254089469802 0.05688879084638977 0.01542100315532564
0.07341821670330372 0.04485724980672066 0.02672400913359994
0.06370419044184777 0.0452023420825569 0.02831120003233655
0.05685447864855307 0.04609787270554402 0.03030481315082024
0.08141643157435155 0.05809039412984926 0.004537613177964459
0.08858356842434247 0.05809039412962941 0.004537613178356621
0.07128339303192981 0.01774947713193803 0.08599722405050117
0.08050436039494356 0.01790125320147933 0.08529815696611882
0.08028920396700549 0.07268430925636271 0.03040039007620294
0.08038400157065187 0.04719144168332801 0.01613764756407199
0.08129744738459184 0.02602141969884211 0.0147861904823622
0.05369044970168221 0.02624526584816437 0.06397861388086518
0.04651198524965836 0.03754696629737839 0.0559901008345951
0.07333331413765398 0.04662822218799702 0.01670702989216559
0.05271602037798581 0.01759194594273924 0.08925675587360173
0.06362609694889683 0.04641777135808818 0.018204219396162
0.05786524842291279 0.04672177037129356 0.02070758823832501
0.08040953037762352 0.02634105537803444 0.05179857531196149
0.07221762001102927 0.03687261966448492 0.03907244314504414
0.07153777531459105 0.0261699468459318 0.05262622069049878
0.1151253946045147 0.07246627108161934 0.08269574622745578
0.1066170103781985 0.07258826041180408 0.07991601107013978
0.09771639639212325 0.07228360360780794 0.07842641840132759
0.1145344293653026 0.06385784601261503 0.08384929433428132
0.1063544098200563 0.06364559018027968 0.0813145552662811
0.09741173958830004 0.0633829896220772 0.07991601106967394
0.1061421539874851 0.05546557063480037 0.08384929433440991
0.09753372891810427 0.05487460539499264 0.08269574622737808
0.0804447188056044 0.02610920380007059 0.06038533239751569
0.05533688727994998 0.03712520772999162 0.04299957931248528
0.08074687058207666 0.03803415156278108 0.02989047558726566
0.08066215940299204 0.03682028299557655 0.03814358519920454
0.1245203654592673 0.07270992575399843 0.08110273747870579
0.1150993807038723 0.07283649737944388 0.0740036593034217
0.1068299299142327 0.07294070507109769 0.07119397301828455
0.09723253287136542 0.07276746712810787 0.06963989292794261
0.1246118322754269 0.06378311933485595 0.08302116304562869
0.1145058002878449 0.06371784703031304 0.07490876217075781
0.1066720997535854 0.06332790024625724 0.07264834448359936
0.09705929492889784 0.06317007008559899 0.07119397301736252
0.1236131337557082 0.05611763486269791 0.08359365299520564
0.1141627394083744 0.05583726059246873 0.0771085372140481
[...]
      <PointData>
        <DataArray type="UInt64" Name="type" format="ascii">
1
1
1
1
1
1
1
1
1
1
1
1
1
1
1
1
1
1
1
1
1
1
1
1
1
1
1
1
1
1
1
1
1
1
1
1
1
1
1
1
1
1
1
1
1
1
1
1
1
1
1
1
1
1
1
1
1
1
1
1
1
1
1
1
1
1
1
1
1
1
1
1
1
1
1
1
1
1
1
1
1
1
1
1
1
1
1
1
1
1
1
1
1
1
1
1
1
1
1
1
1
1
1
1
1
1
1
1
1
1
1
1
1
1
1
1
1
1
1
1
1
1
1
1
1
1
1
1
1
1
1
1
1
1
1
1
1
1
1
1
1
1
1
1
1
1
1
1
1
1
1
1
1
1
1
1
1
1
1
1
1
1
1
1
1
1
1
1
1
1
1
1
1
1
1
1
1
1
1
1
1
1
1
1
1
1
1
1
1
1
1
1
1
1
1
1
1
1
1
1
1
1
1
1
1
1
1
1
1
1
1
1
1
1
1
1
1
1
1
1
1
1
1
1
1
1
1
1
1
1
1
1
1
1
1
0
1
1
1
1
1
1
1
1
1
1
0
0
0
0
1
1
1
1
1
1
1
1
1
1
1
1
1
1
1
1
1
1
1
1
1
1
1
1
1
1
1
1
1
1
1
1
1
1
1
1
1
1
1
1
1
1
1
1
1
1
1
1
1
1
1
1
1
1
1
1
1
1
0
0
1
1
1
0
0
1
1
1
1
1
1
1
1
1
1
1
1
1
1
1
1
1
1
1
1
1
1
1
1
1
1
1
1
1
1
1
1
1
1
1
1
1
1
1
1
1
1
1
1
1
1
1
1
1
1
1
1
1
1
1
1
1
1
1
1
1
1
1
1
1
1
1
1
1
1
1
1
1
1
1
1
1
0
1
1
1
1
1
1
0
0
0
0
0
0
0
0
0
0
0
0
1
1
1
0
0
1
1
1
1
1
1
1
1
1
1
1
1
1
1
1
1
1
1
1
1
1
1
1
1
1
1
1
0
0
1
1
1
1
0
1
1
0
1
0
0
0
1
0
1
1
1
1
1
1
1
1
1
1
1
1
0
0
0
1
1
1
1
1
1
0
0
1
1
1
1
1
1
1
1
1
1
1
1
1
1
1
0
1
1
1
0
0
0
0
0
1
0
1
0
1
1
1
1
0
0
0
0
1
1
0
0
0
1
1
1
1
1
1
1
1
1
1
1
1
1
1
1
1
1
1
1
1
1
1
1
1
1
1
1
1
1
1
1
1
1
1
1
1
1
1
0
0
1
1
1
0
0
1
1
1
1
1
1
0
1
1
0
1
1
1
1
1
1
1
1
1
1
1
1
1
1
1
1
1
1
0
0
0
0
0
0
0
0
0
0
0
0
0
0
0
0
0
0
0
0
0
0
1
0
0
1
1
0
0
0
0
0
0
1
1
1
0
0
0
0
0
0
0
0
0
0
0
0
0
0
0
0
0
0
0
0
0
0
0
0
0
0
0
0
0
0
0
0
0
0
0
0
0
0
0
0
0
0
0
0
0
0
0
0
0
0
0
0
0
0
1
1
1
1
1
1
1
1
1
1
1
1
1
1
1
1
1
1
1
1
1
1
1
1
0
0
0
0
1
1
1
1
0
0
0
1
1
1
1
1
1
1
1
1
1
1
1
1
1
0
0
0
0
1
1
1
1
1
1
1
1
1
0
0
0
1
1
1
1
1
1
1
1
1
1
1
1
1
1
1
1
1
1
1
1
1
1
1
1
1
1
1
1
0
0
0
0
1
0
1
1
1
0
0
1
0
0
0
0
0
0
0
0
0
0
0
0
0
0
0
0
1
1
1
0
0
0
0
0
0
0
0
1
0
0
0
0
0
0
1
0
0
0
0
0
0
0
1
1
1
1
1
1
1
1
1
1
1
1
1
1
1
1
1
1
1
1
1
1
1
1
1
1
1
1
1
1
1
1
1
1
1
1
1
1
1
1
1
1
1
1
1
1
1
1
1
1
1
0
0
0
0
0
0
0
0
0
0
0
0
0
0
0
0
0
0
0
0
0
0
0
0
0
0
0
0
0
0
0
0
0
0
0
0
0
0
0
1
0
0
0
0
0
0
0
1
0
0
0
0
0
0
0
1
0
0
0
0
0
0
0
1
0
0
0
1
1
1
1
1
1
1
1
1
1
1
1
1
1
1
1
1
1
1
1
1
1
1
1
1
1
1
1
1
1
1
1
1
1
1
1
1
1
1
1
1
1
1
1
1
1
1
1
1
1
1
1
1
1
1
1
1
1
1
1
1
1
1
1
1
1
1
1
1
1
1
1
1
1
1
1
1
1
1
1
1
1
1
1
1
1
1
1
1
1
1
1
1
1
1
1
1
1
1
1
1
1
1
1
1
1
1
1
1
1
1
1
1
1
1
1
1
1
1
1
1
1
1
1
1
1
1
1
1
1
1
1
1
1
1
1
1
1
1
1
1
1
1
1
1
1
1
1
1
0
0
0
0
1
1
1
1
1
1
1
0
1
1
1
1
1
1
1
1
1
1
1
1
1
1
1
1
1
1
1
1
1
1
1
1
1
1
1
1
1
1
1
1
1
1
1
1
1
1
1
1
1
1
1
0
1
1
1
1
1
0
0
1
1
1
1
1
1
1
0
0
1
1
1
1
1
1
1
1
1
1
1
1
1
1
1
1
1
1
1
1
1
1
1
1
1
1
1
1
1
1
1
1
1
1
1
1
1
1
1
1
1
1
1
1
1
1
1
1
1
1
1
1
1
1
1
1
1
1
1
1
1
1
1
1
1
1
1
1
1
1
1
1
1
0
0
0
1
0
0
0
1
0
0
0
0
0
0
0
0
0
0
0
1
0
0
0
0
0
1
0
0
0
0
0
0
0
0
1
0
0
0
0
0
0
0
0
1
0
0
0
0
0
0
0
0
1
0
0
0
0
0
0
0
0
0
0
0
0
0
0
0
0
1
0
0
1
1
1
1
1
1
1
0
0
0
1
1
0
0
0
0
0
0
0
0
0
0
0
0
0
0
0
0
0
0
0
0
0
0
0
0
0
0
0
0
0
0
0
0
0
0
0
1
1
1
1
1
1
1
1
1
1
0
1
1
0
0
1
1
1
1
0
0
0
1
1
1
0
0
0
0
0
0
0
0
1
1
1
1
1
1
0
1
1
1
1
0
0
1
1
1
1
0
0
1
0
0
1
1
1
1
0
1
1
1
1
0
0
1
1
0
1
1
1
1
1
0
0
1
1
0
1
0
1
1
1
1
1
1
1
1
1
1
1
1
1
0
0
1
1
1
1
1
1
1
1
1
1
1
1
0
1
1
1
1
1
1
0
1
1
1
1
1
1
1
1
1
1
1
1
1
1
1
1
1
1
1
1
1
1
1
1
0
1
1
1
1
0
1
1
1
1
1
1
1
1
1
1
1
1
1
1
1
1
1
1
1
1
1
1
1
1
1
1
1
1
1
1
1
1
1
1
1
1
1
1
1
1
1
1
1
1
1
1
1
1
1
1
1
1
1
1
1
1
1
1
1
1
1
1
1
1
1
1
1
1
1
1
1
1
1
1
1
1
1
1
1
1
1
1
1
1
1
1
1
1
1
1
1
1
1
1
1
1
1
1
0
0
1
0
1
1
1
1
1
1
1
1
1
1
1
1
1
1
1
1
1
1
1
1
1
1
1
1
1
1
1
1
1
1
1
1
1
1
1
1
1
1
0
1
1
1
0
1
1
1
1
1
1
1
1
1
1
1
1
1
1
1
1
1
1
1
0
0
0
0
0
0
0
1
1
1
1
1
1
1
1
1
1
1
1
1
1
1
1
1
1
1
1
1
1
1
1
1
1
1
1
1
1
1
1
1
1
1
1
1
1
1
1
1
1
1
1
1
1
1
1
1
1
1
1
1
1
1
1
1
1
1
1
1
1
1
1
1
1
1
1
1
1
1
1
1
1
1
1
1
1
1
1
1
1
1
1
1
1
1
1
1
1
1
1
1
1
1
1
1
1
1
1
1
1
1
1
1
1
1
1
1
1
1
1
1
1
1
1
1
1
1
1
1
1
1
1
1
1
1
1
1
1
1
1
1
1
1
1
1
1
1
1
1
1
1
1
1
1
1
1
1
1
1
1
1
1
1
1
1
1
1
1
1
1
1
1
1
1
1
1
1
1
1
1
1
1
1
1
1
1
1
1
1
1
1
1
1
1
1
1
1
1
1
1
1
1
1
1
1
1
1
1
1
1
1
1
1
1
1
1
1
1
1
1
1
1
1
1
1
1
1
1
1
1
1
1
1
1
1
1
1
1
1
1
1
1
1
1
1
1
1
1
1
1
1
1
1
1
1
1
1
1
1
1
1
1
1
1
1
1
1
1
1
1
1
1
1
1
1
1
1
1
1
1
1
1
1
1
1
1
1
1
1
1
1
1
1
1
1
1
1
1
1
1
1
1
1
1
1
1
1
1
1
1
1
1
1
1
1
1
1
1
1
1
1
1
1
1
1
1
1
1
1
0
0
0
0
0
0
0
0
0
0
0
0
1
1
1
1
1
1
1
1
1
1
1
1
1
1
1
1
1
1
1
1
1
1
1
1
1
1
1
1
1
1
1
1
1
1
1
1
1
1
1
1
1
1
1
1
1
1
1
1
1
1
1
1
1
1
1
1
1
1
1
1
1
1
1
1
1
1
1
1
1
1
1
1
1
1
1
1
1
1
1
1
1
1
1
1
1
1
1
1
1
0
0
0
0
0
0
0
0
0
0
0
0
0
0
0
0
0
0
0
0
0
1
1
1
1
1
1
1
1
1
1
1
1
1
1
1
1
1
1
1
1
1
1
1
1
1
1
1
1
1
1
1
1
1
1
1
1
1
1
1
1
1
1
1
1
1
1
1
1
1
1
1
1
1
1
1
1
1
1
1
1
1
1
1
1
1
1
1
1
1
1
1
1
1
1
1
1
1
1
1
1
1
1
1
1
1
1
1
1
1
1
1
1
1
1
1
1
1
1
1
1
1
1
1
1
1
1
1
1
1
1
1
1
1
1
1
1
1
1
1
1
1
1
1
1
1
1
1
1
1
1
1
1
1
1
1
1
1
1
1
1
1
1
1
1
1
1
1
1
1
1
1
1
1
1
1
1
1
1
1
1
1
1
1
1
1
1
1
1
1
1
1
1
1
1
1
1
1
1
1
1
1
1
1
1
1
1
1
1
1
1
1
1
1
1
1
1
1
1
1
1
1
1
1
1
1
1
1
1
1
1
1
1
1
1
1
0
0
0
0
0
0
0
0
0
0
0
0
1
1
1
1
1
1
1
1
1
1
1
1
1
1
1
1
1
1
1
0
0
0
0
0
0
0
0
0
0
0
0
1
1
1
1
1
1
1
1
1
1
1
1
1
1
1
1
1
1
1
1
1
1
1
1
1
1
1
1
1
1
1
1
1
1
1
1
1
1
1
1
1
1
1
1
1
1
1
1
1
1
1
0
0
0
0
1
0
0
0
0
0
0
0
1
0
1
1
1
1
1
1
1
1
1
1
1
1
1
1
1
1
1
1
1
1
1
1
1
1
1
1
1
1
1
1
1
1
1
1
1
1
1
1
1
1
1
1
1
1
1
1
1
1
1
1
1
1
1
1
1
1
1
1
1
1
1
1
1
1
1
1
1
1
1
1
1
1
1
1
1
1
1
1
1
1
1
1
1
1
1
1
1
1
1
1
1
1
1
1
1
1
1
1
1
1
1
1
1
1
1
1
1
1
1
1
1
1
1
1
1
1
1
1
1
1
1
1
1
1
1
1
1
1
1
1
1
1
1
1
1
1
1
1
1
1
1
1
1
1
1
1
1
1
1
1
1
1
1
1
1
1
1
1
1
1
1
1
1
1
1
1
1
1
1
1
1
1
1
1
1
1
1
1
1
1
1
1
1
1
1
1
1
1
1
1
1
1
1
1
1
1
1
1
1
1
0
0
0
1
1
1
1
1
1
1
0
0
1
1
1
1
1
0
0
0
0
1
1
1
1
1
1
1
1
1
1
1
1
1
1
1
1
1
1
1
1
1
1
1
1
1
1
1
1
0
1
1
1
0
0
0
0
0
0
0
0
1
1
1
1
1
1
1
1
1
1
1
1
1
1
1
1
1
1
1
1
1
1
1
1
1
1
1
1
1
1
1
1
1
1
1
1
1
0
0
1
0
0
0
0
1
1
1
1
1
1
1
1
1
1
1
1
1
1
1
1
1
1
1
1
1
0
0
1
1
1
1
0
0
0
1
1
1
1
0
1
0
0
1
1
1
0
0
0
0
0
0
0
0
1
1
0
0
0
0
0
0
0
0
0
0
0
1
0
0
0
0
0
0
0
0
0
0
0
0
1
1
0
0
0
0
0
0
0
0
0
0
0
0
1
1
0
0
0
0
0
1
0
0
1
1
0
0
1
1
0
1
0
0
0
0
0
0
1
0
0
0
0
0
0
0
0
1
1
1
1
1
1
1
1
1
1
1
1
1
1
1
1
0
0
0
0
0
0
1
0
0
0
0
0
0
0
1
1
1
1
0
0
0
0
0
0
0
0
0
1
0
1
1
1
1
1
1
1
1
1
1
1
1
1
1
1
1
0
1
1
1
0
0
1
1
1
0
0
0
0
0
1
1
0
0
0
0
0
0
1
1
1
1
0
0
1
1
1
0
0
1
0
1
1
1
1
1
1
1
1
1
1
1
1
1
1
1
1
1
1
1
1
1
1
1
1
1
1
1
1
0
1
1
1
1
1
1
1
1
1
1
1
1
1
1
1
1
1
1
1
1
1
1
1
1
0
0
0
0
1
1
0
0
0
0
0
0
0
0
0
0
0
0
0
0
1
1
1
1
0
0
0
0
1
1
1
1
1
0
0
1
1
1
1
1
1
0
0
1
0
1
0
1
1
0
0
0
1
0
1
0
1
1
1
1
1
1
0
1
1
1
0
0
0
1
1
1
1
1
1
1
1
1
1
1
1
0
1
1
1
0
1
1
1
1
1
1
1
0
0
1
1
1
1
1
1
1
1
1
1
1
1
1
1
1
1
1
1
1
1
1
1
1
1
1
1
1
1
1
1
1
1
1
1
1
1
1
1
1
1
1
1
1
1
1
1
1
1
1
1
1
1
1
1
1
1
1
1
1
1
1
1
1
1
1
1
1
1
1
1
1
1
1
1
1
1
1
1
1
1
1
1
1
1
1
1
1
1
1
1
1
1
1
1
1
1
1
1
1
1
1
1
1
1
1
1
1
1
1
1
1
1
1
1
1
1
1
1
1
1
1
1
1
1
1
1
1
1
1
1
1
1
1
1
1
1
1
1
1
1
1
1
1
1
1
1
1
1
1
1
1
1
1
1
1
1
1
1
1
1
1
1
1
1
1
1
1
1
1
1
1
1
1
1
1
1
1
1
1
1
1
1
1
1
1
1
1
1
1
1
1
1
1
1
1
1
1
1
1
1
1
1
0
1
1
1
1
1
1
1
1
1
1
0
1
0
0
0
1
1
1
1
1
1
1
1
1
1
1
1
1
1
1
1
1
0
1
1
1
1
1
1
0
0
0
0
0
0
0
0
0
0
0
1
1
1
1
1
0
1
0
0
0
0
0
0
0
0
0
0
0
0
0
0
0
0
0
0
0
0
0
0
0
0
0
0
0
0
0
0
0
0
1
1
1
1
1
1
1
0
0
0
0
0
0
0
0
0
0
0
0
0
0
0
0
0
0
0
0
0
1
0
0
0
1
1
1
1
1
1
1
1
1
1
1
1
1
1
1
1
1
1
1
1
1
1
1
1
1
1
1
1
1
1
1
1
1
1
1
1
1
1
1
1
1
1
1
1
1
1
1
1
1
1
1
1
1
1
1
1
1
1
1
1
1
1
1
1
1
1
1
1
1
1
1
        </DataArray>
        <DataArray type="Float64" Name="density" format="ascii">
998.9728482134684
1003.981176042231
999.8730401613534
999.8730401677587
1001.144676065723
1001.144676081788
1000.183465169648
1000.18346518473
1001.011164523923
1001.011164531449
1000.45766423474
1002.363210528898
1002.363210534744
1001.299008118092
1001.299008120191
1001.081187272238
1001.081187273759
1001.043968358019
1000.901978880825
1000.964292007161
999.6853689922604
1000.89481037102
998.0439941133094
998.0439941024766
1000.011950174608
1000.145696049182
1001.078057076151
999.8690018143477
1001.414437336901
1001.035959300583
1000.031937403693
999.6658032149995
1001.814444699225
1002.517596508058
1001.043968360527
999.5362280664616
997.5027377018331
1000.387249670042
1003.594233829565
996.7786782089901
1002.571018754751
1000.259477480027
1002.063860347906
999.1850310814473
993.3236941070904
1001.562020358669
998.9519642320228
999.806353792047
995.1974196137082
995.3254951520086
993.2943157406834
999.0297735292665
1000.494797585153
1001.336122082377
994.1582913969648
997.0362932117323
1000.287004974774
1001.181544590148
1000.638883297408
1005.021734566482
999.5921413627522
999.9433785699418
1002.190058291535
1001.084819197104
1000.592739393822
1000.712277362913
1000.585717787411
1000.311335107034
1000.695537820627
1006.067522908945
1000.086282240527
999.1904308529923
1000.542116402257
1000.569052562363
1001.578076490852
1001.866094669492
1000.347299478763
998.7789887287302
1003.464768000574
1001.561612313302
1000.011950187733
1000.535620312684
1004.031789659027
1012.42238970871
1000.457664222217
1000.45766423159
1001.011164528655
998.5572322552819
1008.372213893081
999.7311782439176
1003.644144262337
1005.552505754985
1001.858733852602
998.3864551638419
1001.130199459703
1001.868994732904
998.1363804358601
1001.457112698397
1001.256301535831
1001.504194586168
1001.161824224807
1001.868994737445
1001.288101144341
999.8004375281364
1001.207711488152
1000.834471853853
1001.032656752457
1000.585768841619
1001.256301533845
1001.17711730275
1000.349447243464
1000.936515687227
1001.524232981098
999.6480019589583
1000.19099391683
998.7096540539422
999.6400191310778
999.6041951355978
1001.504194581724
1010.033585195215
1000.366132718774
1003.799313432375
1005.324921852208
1006.624738482878
1003.801213897137
1000.90797307748
1000.907973094121
999.2207216052742
999.3139148889304
1000.202754557739
1002.448646753578
997.1319056484917
1001.107964488054
998.787321662934
999.5791347539744
1000.296865699985
1002.761177493452
1000.872768949245
1000.253117773825
995.799889914519
1000.88027140995
999.1319470332586
999.535383848255
998.6959576196826
999.7237206353533
1000.788595776824
999.5353838144791
999.7237206106641
999.1319469997738
999.3564843618122
998.914458482152
995.3072899652449
996.6927303313261
1000.901978884158
1000.824672512072
1000.422869557576
1001.268446650974
1000.964292033535
1002.162929666191
1001.670804912588
1000.422869549516
999.685369005769
1001.427142739743
1002.162929634324
1000.824672495131
1000.89481037989
999.6853689953498
1000.96429200812
1000.901978886545
991.9738630316767
1001.129086806113
1002.791849685257
1000.030558974529
1000.706757334111
994.7174894605746
995.8075383803775
999.7323565448672
1000.145696042593
997.0824348323648
999.1216639934657
1000.613591429497
1001.078057086284
998.3733387830383
998.6294628513461
999.1216640120219
1000.339458741824
1001.414437349039
999.5906375221642
998.3733387829585
997.0824348444472
1001.035959292325
1001.414437317558
1001.078057071162
1000.145696068885
1003.293809891214
1000.290785494061
999.6772689271378
997.9765111878291
1000.410475546521
999.9403334667984
1002.791849682526
1000.93651567793
999.9712700945839
1003.799313427463
1001.814444689569
999.3943827805807
1000.789664267204
999.4311332421632
999.2458200884496
1004.573617947643
1007.923046870772
1001.474832482817
1003.770958492751
1002.120662634058
999.9505599450371
1001.511640557363
999.5447959257663
998.851693784047
1001.032656751368
980.0117838275012
993.2121766454907
1000.183465174611
999.9505599300016
999.869001815024
1001.299008110479
1001.511640538029
1000.676742760535
1000.036946243935
1000.430243967327
999.841680954859
994.9273137577889
1000.906285308056
1002.363210525817
1000.011950171505
1001.043968332876
1001.698513968578
998.9179036918568
999.8228531445565
1003.088052109067
999.8730401712671
999.6496685066836
1000.58576884694
1000.12060890848
999.9505599257393
1000.120608900485
1000.339458734724
1006.226685450829
1005.741973590961
1000.993827706047
1000.739067275068
995.0528278048112
998.0439941084503
998.1368395704787
1003.162431390693
995.494741959722
990.6304129118334
1001.233443927063
1001.339221530822
995.8769214793413
1001.081187259084
1001.144676086552
1001.562020331853
995.4809709194911
1000.202754561891
1000.410475546581
992.6962602700431
986.6724008460272
1006.23361308192
1002.629427372172
1000.610653608943
1000.616556646112
997.3171211133428
999.7323565554959
1000.251173523503
1000.251173512019
1000.613591425836
1000.429759025866
1000.429759040901
1001.130199421514
999.06080341425
1001.764811249994
1000.601813069036
1000.601813076684
998.851693793561
999.5430207682842
997.0282489884746
1001.457112682709
999.592141363766
998.0653220176322
998.7657979894948
998.9519642081134
1002.90471579099
993.7621113971587
1000.036946272558
1001.161824219079
999.1850310705989
1001.288101130657
1000.456203119335
1000.456203135031
1001.092623717433
1001.092623726013
1003.214184246442
1002.526793768544
1002.526793788463
989.6090206666175
998.3998805221196
1001.402673994466
999.9403334780885
1000.31821922541
1000
1000.676742736398
1001.524232983304
1000.641722067122
1000.480588438208
1000.676468798451
999.5430207674568
1001.484205626212
1001.484205637088
1000.843322934796
1000.349447265742
1003.225454923887
1003.225454938484
1002.679474449569
1002.806685096363
1002.806685070828
1000.951568613022
1000.347299487328
999.6480019652693
1000.086282245351
999.3521345874285
1000.19099390422
999.6400191467893
1002.008211418004
1002.008211440961
998.0377714097091
998.0377714179872
1000.366132736174
1000.290785499496
1000.951568610569
997.6164120500137
1006.080271950577
1000.679385297264
1000.679385316678
999.7152531795667
996.1988815982249
1000.843322944492
999.9433785528706
1001.181544579156
1000.296865706774
998.2628911305918
998.23946278172
1000.410475529548
1000.339458746637
1000.120608945664
1000.585768856022
999.8004375554611
999.6496685108144
999.6496685287849
999.2207216184401
1003.088052109927
1003.088052117089
999.8228531513541
999.8228531277581
998.9179036792191
1000.798594137447
1001.032656749381
1001.166590802734
1001.549636011745
1000.572894971194
1001.549636023333
1001.15765940096
999.2711202438396
1001.15765941887
1000.417100856855
1000.011380059162
1000.612728352445
1002.79241452429
1012.546548184292
1000.743641304897
1001.848250080852
999.2207216147328
1000.468910795109
1005.961656842192
1000.468910781864
1002.06386034909
997.6164120584259
1000.613591409139
999.5921413466542
998.9519642406353
999.1850310957414
999.9712700995685
999.3139148954813
1000.215970522735
1002.448646761362
1000.907973093688
1001.336122102515
1000.855535022875
1016.995620221551
1002.792414499468
1001.535821265349
1001.119258004605
1000.215970523378
1000
1000.696847053088
1001.697428873267
1000.405624671668
1005.548235377429
1003.672454509039
1000.292970798351
1000
1015.220311301587
986.6724008457265
980.011783826043
1001.561612294327
1000.198671933548
1000.822492960904
1000.99356429571
997.1319056582284
1006.067522882749
998.3864551657666
1000.638883269253
1000.542116413103
995.3254951293172
1005.021734522833
1000.695537841226
995.3072899374013
1002.791849679723
1000.936515678503
1003.799313431977
1000.253117765331
1010.033585191314
999.8063538063723
996.6927302937642
1001.504194588026
1001.256301536731
1001.868994746859
1005.552505744386
999.3564843797162
1000.592739375621
1000.20275456066
1003.293809895914
997.976511193287
998.9179036866549
1001.156115411132
1000.781399258918
1000.366132746703
999.3139148725548
1002.06386036869
993.195165981939
1000.278150053498
1001.181544601407
999.0608034043894
1000
999.5430207634197
1000
1000.84308029177
1001.093244892295
1000.951568612999
1000.724750330482
1002.806685092245
1000.349447234202
999.648001962236
1000.190993916437
997.6164120653895
999.6400191196368
998.7096540487345
1000.834471818352
1001.207711471666
1000.011380062485
1002.679474462789
998.7096540723036
1000.696847055609
1000.854564877978
1000.895689524629
1001.130199444016
1001.457112672645
1002.679474483432
1001.161824213967
1001.288101150756
1001.177117307059
1000.452871457953
1000.311160829284
979.6514619737546
998.7783577676536
982.4987392856127
1003.224444940058
1000.347299487648
1000.290785496195
999.9433785867265
995.9622043926202
1002.532056378529
1003.225454948153
1001.177117308002
1001.983691778312
1001.295251323159
999.5447959249382
1000.725827841755
1001.697428871252
999.7323565616199
999.9712701177405
999.0608034132762
1000.97544428903
1000.203974923296
1000.257871224968
1000.618235384853
1000.83430184116
999.5447959156006
1000.4056246667
1000.296865695369
1000
1001.764811271279
1000.086282239507
999.8004375256564
998.8516937843208
1001.271162781451
1000.877727122342
1000.997719919976
1000.530032038203
1000.152625810278
1000.118060586905
1000.198671948592
1000
1000.85456486194
1004.931456258993
999.4808969885875
999.4808969720032
999.0407450905499
999.0407450792746
1001.404421000018
1004.031789636001
1004.03178966399
999.9548526724009
999.9548526412627
1000.315390186888
1000.315390194604
999.2616241477125
999.8581937706811
1000.85553506175
988.9000498577669
988.9000498810361
998.7873216896289
998.7873216685034
1004.77219943569
995.8802706444056
1000.714963027084
1004.772199445017
1000.523254359214
1000.523254381218
996.261771389727
996.2617713965194
1014.000402598063
1014.000402636484
1006.365341346876
1016.917427611764
1016.267881855993
1016.267881852704
1016.995620206396
999.029773540923
999.0297735457864
1001.904053169687
1001.904053181851
1003.672454513875
1000.975444299668
970.7027889885326
1004.208352213486
1002.190058300057
1000.292970801649
1015.220311285282
1002.190058284053
999.9772834946673
999.9772835071809
1000.99356424557
999.6606034968103
1001.084819205817
1000
1001.084819173194
982.4987392761756
1000
979.6514620327761
1002.761177491728
995.807538369756
995.8075383623241
994.7174894725327
994.7174894972142
1000.592739382865
1000.494797592328
1000.559590557207
991.9738630315085
995.3072899546873
1000.535620352022
1000.535620332651
999.1904308826987
999.5791347628526
1002.448646758297
998.0981529790565
999.6124468930034
1000.822492973276
1001.156115408463
1000.781399252322
1000.711132664795
1001.028869451939
1003.296312365548
1001.119258002062
1000.530032032427
1000.47191907653
1000.50677315206
1000.208875410056
1000
1000
1003.672454504966
1001.977824384752
1000.295236148569
1000
1001.145543981499
1001.535821257949
1001.271162777336
1000.758037968672
1000.472432664036
999.0190546258066
1001.366335307517
1001.348810857869
1004.322328772547
1000.853648673272
1005.548235397381
1002.824366872454
1001.961462429184
1000.95819918775
1001.568504700001
1000.791699156142
999.869001825691
1000.712209341489
999.6139467517706
1016.597820006882
1000.758037968145
1000.472432661155
1000
1000
1000.046831658701
1000.020968372556
1000
1000.471919073706
1000.506773150585
1000.208875407508
1000
1000
1000.032715057009
1000
1000.822492973382
1001.156115413715
1000.781399252919
1000.711132668103
1001.028869451677
1000.811227697787
1000.133013113831
1000.843080288061
1001.093244887168
1000.724750323247
1000.966951488405
1000.921418148136
1000.847628940804
1000.35843618194
1000.895689503882
1000.45287145268
1000.31116082237
1000.495574377746
1001.062208066663
1001.30410712061
1000.824848040582
1000.203974906554
1000.257871199394
1000.618235372182
1000.834301834795
1001.485637055085
1001.637951367693
1001.069683406247
1000.877727110117
1000.997719925582
1001.366335328667
1001.348810869204
1000.812357616956
1000.644925740203
1000.475413126033
1001.961462447885
1000.95819920959
1001.568504723421
1000.791699180448
998.9728481766033
998.9728481653326
999.715253174934
999.7152531671146
998.2394627716873
998.2628911402412
998.2628911290518
998.2394627845161
1002.792414520587
1000.417100852687
1002.670304043263
1012.546548443784
1012.546548577869
1001.848249912052
1001.848249938751
1005.961656849758
1000.74364112479
1000.787944132058
1000.7879441401
1000.637318734054
1001.107964501463
1001.107964509911
999.7853051798727
996.9737020616232
1003.177732513836
1000.318219169468
1000
1000.480588425526
993.6729887813569
1002.196303253582
1003.464768022474
1000.637318742249
1000.676468815422
1000.278150048351
1000.292970798305
993.1951656960933
995.6585721519734
1001.129086807719
1001.12908682598
997.028248979648
998.0653220031235
1002.904715821815
993.7621113786419