<VTKFile type="PolyData" version="1.0" byte_order="LittleEndian" header_type="UInt64">
  <PolyData>
    <Piece NumberOfPoints="1157" NumberOfVerts="1157">
      <Points>
        <DataArray type="Float64" Name="Points" NumberOfComponents="3" format="ascii">
0.09368745149312591 0.06576951543667287 0.003847183472131407
0.06576951528769216 0.09368745142250651 0.003847183597833489
0.04418367905056113 0.08009762206553687 0.01355396346631743
0.03475235121027954 0.03475235122362218 0.04248089960945099
0.04418367936952141 0.0899023778992188 0.01355396369494125
0.03980360796175277 0.03980360811644716 0.03355655341925238
0.03323609568002875 0.0332360956780326 0.04360129734413706
0.03856542656322973 0.0385654264002657 0.03644188296615959
0.03687194868418695 0.03687194849660296 0.03976849594002907
0.03535137996545278 0.07782379099550747 0.0009654601159716265
0.03910660473817526 0.03112757788690577 0.0378099825277522
0.03112757782839551 0.03910660481945396 0.03780998255891128
0.05746034847450516 0.07053455842130811 0.01340007106240555
0.04243145302375191 0.07773106326193691 0.004740652431398875
0.04086278833145159 0.08215638286208586 0.005583940863595389
0.04147398046619218 0.0414739866403916 0.03010958769329752
0.02636426053010889 0.03795819054955557 0.03689250733454635
0.0452857698424469 0.03584527519103382 0.02644204669606996
0.04379584385044921 0.03008310424469561 0.02758561448221441
0.05907772829415362 0.06985393095152874 0.004650343609744305
0.02785505230588396 0.04860406195280589 0.01973306784341347
0.0517840129537516 0.06999903980370545 0.002192838412463044
0.008186842105263157 0.07144473684210526 0.007911538461538463
0.008186842105263157 0.07144473684210526 0.01667307692307693
0.008186842105263157 0.07144473684210526 0.02543461538461539
0.008186842105263157 0.07144473684210526 0.03419615384615385
0.008186842105263157 0.07144473684210526 0.04295769230769231
0.008186842105263157 0.07144473684210526 0.05171923076923078
0.008186842105263157 0.07144473684210526 0.06048076923076924
0.0242809753778403 0.04605182364342691 0.0201288788915202
0.0300831044589909 0.04379584390689284 0.02758561460669934
0.03795819051189377 0.0263642605480401 0.03689250723708388
0.05224330386412374 0.07474781731617451 0.01378790063156872
0.05224330394925377 0.09525218271175176 0.01378790075886936
0.05072804836022543 0.09248350973907195 0.003927064935327193
0.03586866493149821 0.02685229012203312 0.04033619311518852
0.03224521374830144 0.02045330471143838 0.03657647659958019
0.02045330490446997 0.03224521385772137 0.03657647662479525
0.0297354975385949 0.04741096808924514 0.022816621357582
0.05072804855403921 0.07751649061984543 0.00392706488529731
0.04035061834768285 0.0403506178051637 0.009170185329646233
0.03149092413284541 0.01871580141734656 0.03363397914925435
0.01871580154105178 0.03149092404005732 0.03363397916956064
0.06576951553501185 0.07631254847167511 0.003847183657283401
0.02425329596461256 0.04259516882805363 0.024928223151874
0.0284311930531491 0.01762352742260147 0.02637005958744933
0.0176235274535606 0.02843119280812361 0.02637005943764333
0.05055293476950475 0.08205673659381379 0.01444625486765627
0.03105387185051472 0.01770085191892892 0.0300012699840021
0.01770085187943451 0.03105387136436823 0.03000127002253599
0.05055293519923162 0.08794326337808232 0.01444625488103044
0.05917432090993689 0.0802613872306603 0.009880926978564276
0.05917432093983131 0.08973861280683694 0.009880926903949297
0.04625635190420446 0.07402727783747291 0.001886363923384665
0.02092431783239757 0.03948182911376745 0.0239517842733758
0.008186842105263157 0.008186842105263157 0.007911538461538463
0.008186842105263157 0.01722368421052631 0.007911538461538463
0.008186842105263157 0.02626052631578947 0.007911538461538463
0.008186842105263157 0.03529736842105263 0.007911538461538463
0.02272377135710829 0.02272377134268569 0.03875866495306473
0.008186842105263157 0.008186842105263157 0.01667307692307693
0.008186842105263157 0.01722368421052631 0.01667307692307693
0.008186842105263157 0.02626052631578947 0.01667307692307693
0.008186842105263157 0.03529736842105263 0.01667307692307693
0.008186842105263157 0.008186842105263157 0.02543461538461539
0.008186842105263157 0.01722368421052631 0.02543461538461539
0.008186842105263157 0.02626052631578947 0.02543461538461539
0.008186842105263157 0.03529736842105263 0.02543461538461539
0.008186842105263157 0.008186842105263157 0.03419615384615385
0.04243145250053788 0.09226893701439069 0.004740652483605738
0.04106927893487082 0.07430403177565834 0.01046807657553189
0.008186842105263157 0.01722368421052631 0.03419615384615385
0.008186842105263157 0.02626052631578947 0.03419615384615385
0.008186842105263157 0.03529736842105263 0.03419615384615385
0.008186842105263157 0.008186842105263157 0.04295769230769231
0.008186842105263157 0.01722368421052631 0.04295769230769231
0.008186842105263157 0.02626052631578947 0.04295769230769231
0.008186842105263157 0.03529736842105263 0.04295769230769231
0.008186842105263157 0.008186842105263157 0.05171923076923078
0.008186842105263157 0.01722368421052631 0.05171923076923078
0.008186842105263157 0.02626052631578947 0.05171923076923078
0.008186842105263157 0.03529736842105263 0.05171923076923078
0.1044137702407585 0.05459595010965517 0.003968390356848565
0.04057962798353963 0.04057962060567961 0.02816267442656376
0.008186842105263157 0.008186842105263157 0.06048076923076924
0.008186842105263157 0.01722368421052631 0.06048076923076924
0.008186842105263157 0.02626052631578947 0.06048076923076924
0.008186842105263157 0.03529736842105263 0.06048076923076924
0.03982709111003804 0.0254503225095044 0.03110322882180469
0.03745820729363786 0.04899172792842906 0.02137211967599455
0.01722368421052631 0.008186842105263157 0.007911538461538463
0.02626052631578947 0.008186842105263157 0.007911538461538463
0.02626052631578947 0.008186842105263157 0.03419615384615385
0.01722368421052631 0.008186842105263157 0.04295769230769231
0.02626052631578947 0.008186842105263157 0.04295769230769231
0.01722368421052631 0.008186842105263157 0.05171923076923078
0.02626052631578947 0.008186842105263157 0.05171923076923078
0.02626052631578947 0.008186842105263157 0.01667307692307693
0.01722368421052631 0.008186842105263157 0.06048076923076924
0.02626052631578947 0.008186842105263157 0.06048076923076924
0.01722368421052631 0.008186842105263157 0.03419615384615385
0.02913475845676443 0.02913475843420501 0.005041648637055589
0.01722368421052631 0.008186842105263157 0.02543461538461539
0.01722368421052631 0.008186842105263157 0.01667307692307693
0.02626052631578947 0.008186842105263157 0.02543461538461539
0.04433421052631578 0.008186842105263157 0.07800384615384616
0.04433421052631578 0.008186842105263157 0.0692423076923077
0.02917421743988421 0.02371738999150944 0.01685579770090938
0.02371738985160635 0.02917421728232054 0.01685579779147963
0.02545032260225474 0.03982709113717817 0.03110322884211695
0.02341646866174043 0.04391665036689538 0.01563944384080377
0.02506891417449775 0.04656287063000053 0.01371539324576018
0.09525218269069805 0.0522433040266243 0.01378790076418617
0.09226893684238553 0.04243145261295999 0.004740652420132649
0.1001460691570107 0.05907772809993349 0.004650343355161479
0.1000009605032951 0.05178401226656434 0.002192837962890797
0.09248350967327536 0.05072804845488198 0.003927065158148595
0.09569596851029814 0.04106927917446342 0.01046807695069451
0.08951842105263157 0.008186842105263157 0.03419615384615385
0.09855526315789473 0.008186842105263157 0.03419615384615385
0.09946544154064295 0.05746034851689284 0.01340007109489325
0.09597272267981045 0.0462563515751589 0.001886363729437797
0.09217620907598195 0.03535138039249776 0.0009654602232632176
0.09855526315789473 0.008186842105263157 0.02543461538461539
0.08951842105263157 0.008186842105263157 0.02543461538461539
0.09855526315789473 0.008186842105263157 0.01667307692307693
0.08951842105263157 0.008186842105263157 0.01667307692307693
0.09855526315789473 0.008186842105263157 0.007911538461538463
0.08951842105263157 0.008186842105263157 0.007911538461538463
0.09855526315789473 0.008186842105263157 0.07800384615384616
0.08951842105263157 0.008186842105263157 0.07800384615384616
0.09855526315789473 0.008186842105263157 0.0692423076923077
0.08951842105263157 0.008186842105263157 0.0692423076923077
0.09855526315789473 0.008186842105263157 0.06048076923076924
0.08951842105263157 0.008186842105263157 0.06048076923076924
0.09855526315789473 0.008186842105263157 0.05171923076923078
0.08951842105263157 0.008186842105263157 0.05171923076923078
0.08973861278110322 0.05917432100464742 0.00988092682943963
0.09855526315789473 0.008186842105263157 0.04295769230769231
0.08951842105263157 0.008186842105263157 0.04295769230769231
0.02175078064980298 0.04132078117807911 0.01877041490037277
0.08990237807013217 0.04418367947687649 0.01355396367352116
0.08794326340385651 0.05055293510063295 0.01444625490200258
0.02011095483764884 0.02011095479975102 0.02377894465391459
0.03529736842105263 0.008186842105263157 0.0692423076923077
0.03529736842105263 0.008186842105263157 0.07800384615384616
0.02252537965345314 0.02252537959788664 0.0188288122834214
0.02806098487855729 0.03173402832200134 0.0105387998617708
0.03173402835088737 0.02806098503211831 0.01053879974377467
0.0878436170065231 0.04086278970139512 0.005583941717777828
0.05037229917160237 0.0503722985178183 0.003525678890718427
0.05409642796381405 0.0603081344414601 0.009505540840003882
0.07053455854189816 0.0574603484485965 0.01340007099579464
0.06030813485215219 0.05409642748539873 0.009505540858541769
0.05995277907266737 0.05995277914649071 0.01687114831106766
0.04993896322956768 0.05473206170034958 0.01447952511052295
0.0698539309021764 0.05907772806362675 0.004650343280678844
0.0601404093103749 0.0601404092472053 0.009625395967898853
0.06977611935776017 0.0697761192412259 0.006156103930114168
0.0544385464128621 0.05443854626127601 0.01496937962098218
0.06612929588826857 0.06612929581396468 0.000397162418328092
[...]
      <PointData>
        <DataArray type="UInt64" Name="type" format="ascii">
1
1
1
1
1
1
1
1
1
1
1
1
1
1
1
1
1
1
1
1
1
1
0
0
0
0
0
0
0
1
1
1
1
1
1
1
1
1
1
1
1
1
1
1
1
1
1
1
1
1
1
1
1
1
1
0
0
0
0
1
0
0
0
0
0
0
0
0
0
1
1
0
0
0
0
0
0
0
0
0
0
0
1
1
0
0
0
0
1
1
0
0
0
0
0
0
0
0
0
0
0
1
0
0
0
0
0
1
1
1
1
1
1
1
1
1
1
1
0
0
1
1
1
0
0
0
0
0
0
0
0
0
0
0
0
0
0
1
0
0
1
1
1
1
0
0
1
1
1
1
1
1
1
1
1
1
1
1
1
1
1
1
1
1
1
1
1
1
1
1
1
1
1
1
0
0
0
0
0
1
0
0
0
0
1
0
0
0
0
0
0
1
0
0
0
0
0
0
0
0
0
0
0
0
0
0
0
0
0
0
0
1
1
0
0
0
0
0
0
1
1
0
0
0
0
0
0
0
1
1
1
1
1
1
1
1
1
1
1
1
1
1
1
0
0
1
1
1
1
1
1
1
1
1
1
1
1
1
1
0
1
1
1
1
1
1
1
1
1
1
1
1
1
1
1
1
1
0
0
0
0
0
0
0
0
0
0
0
0
1
1
1
1
0
0
0
0
0
0
0
0
0
1
1
1
1
1
1
1
1
1
1
1
0
1
1
1
1
0
1
1
1
0
0
0
1
0
1
1
0
1
0
1
1
0
0
0
1
0
0
0
1
1
0
1
0
0
0
0
1
0
0
0
1
1
0
0
1
0
1
0
0
0
1
0
0
0
1
1
0
1
0
0
0
1
0
1
0
0
0
0
0
1
1
1
1
1
1
1
0
0
1
0
0
0
0
0
0
0
0
0
1
0
1
1
0
0
0
1
1
1
0
1
0
0
1
0
0
1
1
0
0
0
1
1
0
1
1
0
0
0
0
0
0
0
0
0
1
0
1
0
0
0
0
0
0
0
1
0
0
0
0
0
1
1
0
1
0
1
1
0
0
0
0
1
0
0
0
0
0
0
0
0
1
1
1
1
0
1
1
0
0
1
0
0
1
0
1
1
0
0
1
1
1
0
0
1
1
0
1
0
0
0
1
1
0
0
0
1
0
0
0
0
1
1
0
0
0
1
1
0
0
0
0
0
1
0
0
0
0
0
1
1
1
1
1
1
1
1
1
1
0
0
0
0
0
1
0
0
1
0
0
0
0
0
0
0
0
0
1
0
0
0
0
0
0
0
0
1
0
0
1
0
0
0
0
1
1
1
0
1
1
1
0
0
1
1
1
0
0
1
0
0
1
0
1
1
0
0
1
1
0
1
1
0
1
1
1
1
1
1
1
1
0
1
0
0
0
0
0
0
0
0
0
1
1
1
0
0
1
1
1
1
1
1
1
1
1
1
1
1
1
1
1
1
1
1
1
1
0
0
0
0
0
0
0
0
0
1
1
1
1
1
1
1
1
1
1
1
1
1
1
1
1
1
1
1
1
1
1
1
1
1
1
1
1
1
1
1
1
0
0
0
0
0
1
0
0
0
0
0
1
1
1
0
0
1
1
0
0
0
0
0
0
0
0
0
0
0
0
0
0
0
0
1
0
0
0
0
0
0
0
1
1
1
1
1
1
1
1
0
0
0
0
1
1
1
1
1
1
1
1
1
1
1
1
1
1
1
1
1
1
1
1
1
1
1
1
1
1
0
0
0
0
1
0
0
1
0
0
0
1
1
1
1
1
1
1
1
1
1
1
1
1
1
1
1
1
1
1
1
1
1
0
1
1
1
1
1
1
0
0
0
0
0
0
0
0
0
0
0
0
0
0
0
1
1
1
1
0
0
1
0
0
0
0
0
0
0
0
0
0
0
0
0
0
0
0
0
0
0
0
0
0
0
0
0
0
0
0
0
0
0
0
0
0
0
0
0
0
0
0
0
0
0
0
0
0
0
0
0
0
0
0
0
0
0
0
0
0
0
0
0
0
0
0
0
0
0
0
0
0
0
0
0
0
0
0
0
0
0
0
0
0
0
0
0
0
0
0
0
0
0
0
0
0
0
0
0
0
0
0
0
0
1
1
0
0
0
0
0
0
0
0
0
0
0
0
0
0
0
0
0
0
0
0
0
0
1
0
0
0
0
0
0
0
0
0
0
0
0
0
0
0
0
0
0
0
0
0
0
0
0
0
0
0
0
0
0
0
0
0
0
0
0
0
0
0
0
0
0
0
0
0
0
0
0
0
0
0
0
0
0
0
0
0
0
0
0
0
0
0
0
0
0
0
0
0
0
0
0
0
0
0
0
0
0
0
0
0
0
0
0
0
0
0
0
0
0
0
0
0
0
0
0
0
0
0
0
0
0
0
0
0
0
0
0
0
0
0
0
0
0
0
0
0
0
0
0
0
0
0
0
0
0
0
0
0
0
0
0
0
0
0
0
0
0
0
0
0
0
0
0
0
0
0
0
0
0
0
0
0
0
0
0
0
0
0
0
0
0
0
0
0
0
0
0
0
0
0
0
0
0
0
0
0
0
0
0
0
0
0
0
0
0
0
0
0
0
0
0
0
0
0
0
0
0
        </DataArray>
        <DataArray type="Float64" Name="density" format="ascii">
1000.781635589887
1000.781635629673
1001.392380077315
1000.394980529346
1001.392379458392
996.7184450038704
1000.532485994472
997.6711819465185
999.4235741332607
997.4136959466948
999.7911766536145
999.7911755886272
997.5609243535375
997.4778362864831
997.9250686392201
996.5244884693897
1000.620648249671
1000.403139939685
1001.208315813005
1001.14775502601
998.8049375108166
1003.450614128972
1000
1000.000628545753
1000
1000
1000
1000
1000
996.9243339367397
1001.208315812514
1000.620650069068
999.6059423055854
999.6059404213033
1001.464242728256
1000.44023758432
1000.662340122346
1000.662342343966
997.1434546269965
1001.464243026757
995.2713120084285
999.3878719951714
999.3878739645811
1000.781635386394
1000.705886361863
999.4937486886038
999.4937494171825
999.8456340622953
998.6514152460845
998.6514156817037
999.8456323964363
1001.944992146015
1001.944990389605
1003.200762060199
995.8195823489658
1000.001354114512
1000
1000
1015.586840365746
1000.225344009741
1000
1000
1000
1000
1000
1000
1000
1000
1000
997.4778369686443
1000.36583120269
1000
1000
1000
1000
1000
1000
1000
1000
1000
1000
1000
996.260111235
1000.364268717294
1000
1000
1000
1000
1000.780128246671
1000.655219009179
1000
1000
1000
1000
1000
1000
1000
1000
1000
1000
1000
999.425849315199
1000
1000
1000
1000
1000
1002.50294094386
1002.502941842514
1000.78012887773
1001.254019393407
1000.412124887893
999.6059415499071
997.4778361102452
1001.147754118447
1003.450614884124
1001.464243199076
1000.365831389139
1000
1000
997.5609244148854
1003.200761541888
997.413695591832
1000
1000
1000.000628546264
1000
1000
1000
1000
1000
1000
1000
1000
1000
1000
1000
1001.944991106657
1000
1000
999.0976845232842
1001.392380493561
999.8456332606381
998.6494184295077
1000
1000
1000.436692111046
1002.094174440396
1002.094174451538
997.925070111469
1000.938134423349
1000.285568812113
997.5609246291998
1000.285566888356
1001.964745551891
999.224310272803
1001.147754214157
1001.69432732607
1000.155028988565
998.712688078254
996.0320137841857
999.6059418086975
1000.781635772225
996.2601119918937
1000.365831965881
999.8456330865999
996.9243337971727
1000.269733637431
999.6554556742769
998.7630481464865
999.2243105125019
998.2457787929505
1001.392380542342
996.2601117776785
1000.000628546035
1000.922098297977
1000
1000
1000
1000.774395356786
1000
1000
1000
1000.177101717255
997.9250701198456
1000
1000
1000
1000
1000
1000
996.4121303970204
1000
1000
1000
1000
1000
1000
1000
1000
1000
1000
1000
1000
1000
1000
1000
1000
1000
1000
1000
1002.010801572981
1000.210182629362
1000.439654886028
1001.571894614655
1009.192691545538
1015.586839463178
1000
1000
1001.851459676041
1001.220369673898
1000
1000
1000
1000
1000
1000
1000
1004.906802746265
999.1700176410393
997.4778377255017
1004.603951982042
1000.412123390928
1004.301328654603
1003.200761919303
997.4136954884118
993.2572168601208
1000.968903979678
999.0976823117702
1001.25401755398
1002.01080154323
1002.026681805777
1000.398941222831
1000
1000
1000.164941205631
997.3026109765736
1003.450614853653
1001.464242852062
991.7921303395148
998.8049367184093
1000.655221422259
1001.944991225018
995.819581184365
1000.968900535019
1000.705883384748
997.1434554112648
999.6554544650272
999.7356481492831
1000
1002.517660900094
1002.517660090279
1000.440236280777
1000.403139272374
990.6890754283747
998.2457794338914
999.5446889393943
998.7908238519407
998.7908240483092
999.7129609483716
1000.774393690913
991.7921360474244
999.1700156744934
1001.851456547831
1002.02668010907
998.7630468001939
996.4121301343463
1000
1000
1000
1000
1000
1000
1000
1000
1000
1000
1000
1000
1001.22036812802
997.3026099250669
993.2572173860636
1004.906804589975
1009.192691843415
1001.571893648744
1000.439654699764
1000
1000
1000.922097956045
1000
1000
1000.177101643224
1000.77439560423
990.6890829168094
1002.517659776125
1002.517658936991
1002.010800505107
1002.010800985627
1000.398940503906
998.2457789935225
1002.094175460928
1002.094175303867
1002.502941337701
1000
1002.502940883522
998.7630490343618
999.423573819617
997.6711816901565
1000
998.7908229764067
1000.155029364888
998.7908228523488
1000
1000
1000
998.7126875932533
1000
999.2243103623967
1000.39498026082
1000
1000.210183218778
1000
1000.597414165527
996.718444624614
1000
1000
1000
999.791175729022
1000
1000
1000
1000.655221821361
1000.440237530214
1000
1000.635450745102
1000
1000
1000
1000
1000.440236914974
1000
1000
1000
1000.285566546882
996.9243327562816
1000
1015.586840212475
1001.208315470403
1000
1001.208315611613
1000
1000.001354096648
1000
1000.269732931729
1000
1000
1000
1001.147754729414
1000.365830852251
1000
997.4778367379854
1000
1000
1000
997.4136956025759
1000
1001.220366915462
1000
1000
1000
1000
1000
1000.403138828936
1000.436693508577
999.7356510144688
997.1434553265605
999.4258490384609
1001.39237923607
1000.620649043474
1000
1000
1001.049142119609
1000
1000
1000
1000
1000
1000
1000
1000
1015.586840419457
999.8456338506697
1000
999.8456335027929
1001.944991341054
1000
1000
1000
999.7911761869168
996.260112308286
1000.655218353466
1000
1000.36426950703
1000
1000
1000.532485924003
1000
1000
996.41213159545
999.6059407351191
1000
1000
1000
1000.403140852
1001.944991800895
1000
1000.96890406555
1001.158435931904
1000
1000
1000
1000
1000
1000
1000
1000
1000
996.5244882140114
1000
1000.365830466115
1000
1000
1000
1000
1000
1000
1000
1000.285567944345
1000
1000
1000
1000
1000
997.5609241587488
996.0320134587489
1000
991.7921309989658
1000
999.7129618840083
1000.620649734158
1000
1000
1000
1000
1001.694327775057
1000
1000
1000
1000
1000
1000
1000
1000
1001.964746878462
1001.220369713916
997.1434556348453
999.5446887740753
1000
998.6494181249548
1000.774393125184
1000
1000
1004.301329583271
1000
1000
1004.603949877361
1000.177102154371
999.6554545727661
998.2457791184612
1000
1000
999.4937479191519
999.4937482251087
1000.225343784012
1000.922098708341
1000
995.8195808137568
995.2713178336385
1000
999.097684203923
1009.192691861143
1001.571894475823
1000.439654853868
999.0976819912285
1001.254018497742
1000
1000
1000
1001.254017231994
1000
1000
1000
1000
999.3878727286948
999.2243096070215
1000
1000
1000
997.9250709133963
999.3878717675524
1000
1000
1000
1000
1000
1000.412124105265
1000
1000
1000
1000
1000
997.9250704189041
1000.412123471199
998.6514147516805
998.6514144830887
997.8104811569566
1001.392378908764
1000.164941697176
995.8195817876805
1000.938134579215
1000.705884378244
1000
1000
1000.439654979536
1001.571894997909
1009.192692827521
1000.705882782913
1000.922099021424
1000
996.9243327303152
1000
1000
1000
1000
1000
1000
1000
1000
1000
999.1700163972964
1000
1000
1000
1000
1000
1000
1000
1000
1001.85145861099
1000.177102409229
1000
998.7630483162988
1000
1000
1000
1000
996.412131102125
1002.026680979131
997.3026110984347
1000.000628548132
993.257215936585
1003.200760887071
997.302610145945
1000
1000
1001.85145662909
999.1700159100458
1002.026679967855
1000
1000
1004.906802772954
1000
1000
1004.906804317071
1000
993.2572154445002
999.6554545395863
1000
1000
1000.781635320523
997.477836046342
1000
998.8049360776968
998.8049372308961
1000
1000.662341020456
1000.662340216097
997.4136956825741
1003.450614408404
1000.780128023865
1000.780128952641
991.7921355233667
1001.464242583474
1000
1000.968901921755
1000
1000
1000
1000
1000
1000
1000
1000.000628545576
1000
1001.464242678439
1000.781635503218
999.6059416361951
1000
1000
1001.158435901374
997.8104803856731
1000.21018323886
1000.655222021288
1000.440236038116
1000.655220996455
1001.964746834795
1001.220367850876
997.5609241915868
999.2243099320455
1000.774394215427
1000.620647938384
1000.285565871065
1001.147754721266
1000.78163526951
995.2713098602192
999.1700181778656
1001.46424297721
1000.269732857288
999.6554520045564
1000
1000
1000
1000
1000
1000
1000
1000
1015.586840306084
999.7911753944194
999.6059420955772
1001.944990794859
999.8456326596311
999.8456343018184
1001.694327791895
996.2601113593089
1000.285568870377
1004.603952464768
1003.450614014559
999.6059412457029
996.0320133825468
1001.944992378185
1000.164941704937
998.7126875753097
1003.200761581815
999.170017603306
999.0976844892883
1000.780129101169
995.8195823844889
1001.464242667172
1000.705886780935
997.6711818856284
999.7129621228581
996.5244886419115
1000.403140658931
1000.938134786989
1000.781635953134
1000.968901111188
1000.403140463819
996.718445199046
1000.155029213347
1000
1000
1000
1000
1000
1000.364268851108
1000
1000
1000
1000
1000
997.5609244645555
1001.147754088748
1003.450615337919
1000
1000
997.413695308468
1003.200760983366
1000
1000
1000
1000
1000
1000
1000
1000
1000
1000.000628548252
1000
1000
1000
1000
1000
1000
1000.365831264034
1000
1000
1000
1000
1000
1000
1000
997.925072433652
998.7630494072272
998.2457785364586
996.4121312094378
997.3026112683386
1002.026681715857
993.2572155046989
1001.851459953232
1000.439655124765
1000.922099258119
1000.177102448303
1000
1000.968904563129
996.26011200059
998.8049364627113
997.1434564147434
999.6554564841642
999.2243101075281
1000.412122702171
996.9243320552642
991.7921306469744
1004.906803305313
1000.412125073852
999.712960753413
996.924333936788
1001.147754196168
1001.220367715686
1000.655218690896
997.1434547661373
996.2601122448108
999.6554561446384
1000.774393378368
999.6554543503665
1003.45061460038
999.1700157329703
1001.254019362974
1001.964745438645
999.224310013509
1000
1000
1009.192691909895
1000
999.2243106116118
1000
1000
999.4235741380655
1000
1000
1000
1000.394980525621
997.5609241464167
1001.694327527933
996.412131019038
1000.164940924286
993.2572180685964
991.7921360696276
1000.285567054153
1004.906805016261
998.7126884775902
998.2457795518992
1000.403139002303
1002.010801242698
998.7630468127372
1000.968904257982
1000.269733574222
1000.210182469192
1002.026680049002
997.3026099725047
998.8049375205903
1000.938134416645
996.0320138622238
1000
997.5609237093983
996.2601122954956
1003.450614095067
1001.851455849939
1003.200761551091
1001.147754402589
1000.439654687131
1001.571893688103
1000.922097867793
1000
1000.177101507505
1000
1000
1000
1000
1000
1000
1000
1000
1000
1000
1003.200761013814
1000.285569263513
1000.968900940228
1000.155029108385
1000
1000
1001.208316154838
1000
1000
1000
1000
1000
1000
1000
1000
1000
1000
1000
1000
1000
1000
1000
1000
1000
1000
1000
1000
1000
1000
1000
1000
1000
1000
1000
1000
1000
1000
1000
1000
1000
1000
1000
1000
1000
1000
1000
1000
1000
1000
1000
1000
1000
1000
1000
1000
1000
1000
1000
1000
1000
1000
1000
1000
1000
1000
1000
1000
1000
1000
1000
1000
1000
1000
1000
1000
1000
1000
1000
1000
1000
1000
1000
1000
1000
1000
1000
1000
1000
1000
1000
1000
1000
1000
1000
1000
1000
1000
1000
1000
1000
1000
1000
1000
1000
1000
1000
1000
1000
1000
1000.635450107916
1000.597413798194
1000
1000
1000
1000
1000
1000
1000
1000
1000
1000
1000
1000
1000
1000
1000
1000
1000
1000
1000
1000
1000
1000
1001.049141842427
1000
1000
1000
1000
1000
1000
1000
1000
1000
1000
1000
1000
1000
1000
1000
1000
1000
1000
1000
1000
1000
1000
1000
1000
1043.569128074452
1038.273906329221
1035.989621421179
1028.650048056683
1032.477782150193
1018.075766180566
1000.245996891278
1001.252083605256
1000
1038.273906235095
1000
1000.000000603784
1000.170809015983
1000.000000603784
1000.136321363776
1000
1000.051999332969
1000
1043.569128025051
1018.075766178974
1000.17080901659
1000.109934694971
1000.136321364018
1018.075766077088
1032.47778214304
1000
1000
1000
1000.170420880325
1000.170420880517
1000
1035.98962140988
1000
1001.252083606112
1000.170420880552
1000.051999332943
1000.114227034475
1000.109934695384
1000.114227034227
1035.989621434129
1000.109934695633
1028.650048073417
1000.051999332846
1000.17080901672
1000
1000.114227034887
1000
1000.136321363798
1000.051999332914
1000.24599689427
1000.114227034607
1000
1000.170420880355
1048.888053990599
1000.13632136498
1000
1048.888054121921
1000
1000
1000
1000
1048.888054130178
1032.477782149233
1000
1000
1038.27390622749
1000
1000.245996872244
1000
1028.650048078385
1000
1043.569128177576
1001.252083605657
1000.000000603784
1000
1043.569128355643
1000
1038.273906429373
1000
1000
1035.989621422856
1028.650048120566
1000
1000
1032.477782152605
1018.075766116949
1000.000000603784
1000.109934696124
1000
1000
1000
1001.252083608735
1000
1000
1000.170809018648
1000
1000
1000.136321364412
1000.170420880295
1000.114227035067
1048.888054277239
1000.245996885231
1000.051999332948
1000
1000
1000
1038.273906393673
1000.170809016434
1032.477782110512
1043.569128097458
1000
1035.989621463702
1000
1043.569127918907
1000.170809015067
1000
1028.650048136501
1000.136321363125
1038.273906106077
1000
1000.245996886311
1000
1000
1000.245996870868
1000
1048.888054126578
1048.888054073544
1000
1000
1000
1000
1000
1000
1000
1000
1000
1000
1000
1000
1000
1000
1000
1000
1000
1000
1000
1000
1000
1000
1000
1000
1000
1000
1000
1000
1000
1000
1000
1000
1000
1000
1000
1000
1000
1000
1000
1000
1000
1000
1000
1000
1000
1000
1000
        </DataArray>
        <DataArray type="Float64" Name="density_prev" format="ascii">
1000.857183702472
1000.857183765952
1001.374573875557
1000.357980826206
1001.374573155983
996.7203877609741
1000.507478829169
997.5170715961498
999.3344300197413
997.2822112505962
999.7040467508336
999.7040456917492
997.561542977914
997.410827650823
998.0682618062541
996.7904039570801
1000.666270621728
1000.575840483226
1001.164124040983
1001.278243469108
998.8454919562625
1003.561202934875
1000
1000.000586142672
1000
1000
1000
1000
1000
996.6666816012445
1001.164124088028
1000.666272388652
999.7027957652293
999.7027937308536
1001.745975508515
1000.534684882228
1000.712932171165
1000.712934647484
997.0865537364372
1001.745975751186
995.2280511578965
999.373247155996
999.3732490915279
1000.857183390242
1000.488154888971
999.5614895377742
999.5614902762512
999.8857534891823
998.6810143000728
998.6810147450752
999.8857518306363
1002.140257932313
1002.140256194501
1003.430359335885
995.687672230696
1000.000687097716
1000
1000
1015.604169058038
1000.317156514867
1000
1000
1000
1000
1000
1000
1000
1000
1000
997.4108282116572
1000.380005177092
1000
1000
1000
1000
1000
1000
1000
1000
1000
1000
1000
996.1983859536956
1000.451435530418
1000
1000
1000
1000
1000.83315918043
1000.986095247906
1000
1000
1000
1000
1000
1000
1000
1000
1000
1000
1000
999.489277571502
1000
1000
1000
1000
1000
1002.457503459482
1002.457504289943
1000.833160153671
1001.23346085591
1000.543845252156
999.7027949052734
997.41082737279
1001.278242701207
1003.561204029577
1001.745975878316
1000.380005235822
1000
1000
997.561542993526
1003.430359122352
997.2822107146682
1000
1000
1000.000586143171
1000
1000
1000
1000
1000
1000
1000
1000
1000
1000
1000
1002.140256911022
1000
1000
999.100655217685
1001.374574165891
999.8857526248045
998.8354402926533
1000
1000
1000.507094883387
1002.028233847089
1002.028233951738
998.0682634409635
1001.72394721192
1000.144525736981
997.5615432240836
1000.144523740276
1002.222035024561
999.1991826038591
1001.278242783679
1001.628919258512
1000.037355941566
998.6194164744517
996.2666160274754
999.7027951315613
1000.85718387782
996.1983865713266
1000.380005770573
999.8857524792853
996.6666815336511
1000.292107812287
999.3582380580494
998.6118118254275
999.1991827528636
998.2941817838511
1001.374574194689
996.1983864003626
1000.000586142959
1000.916952428836
1000
1000
1000
1000.870486209305
1000
1000
1000
1000.194725037995
998.0682635023591
1000
1000
1000
1000
1000
1000
996.2088665557493
1000
1000
1000
1000
1000
1000
1000
1000
1000
1000
1000
1000
1000
1000
1000
1000
1000
1000
1000
1002.111763526417
1000.273321781262
1000.424756552633
1001.548828098309
1009.194231757058
1015.604168165303
1000
1000
1001.833063341475
1001.269730472812
1000
1000
1000
1000
1000
1000
1000
1005.343961050185
999.0348367177396
997.4108289326703
1004.645810340637
1000.543843966938
1004.195569424162
1003.430359476956
997.2822105889966
993.5963711536449
1000.846010171955
999.100653122131
1001.233459223654
1002.111763202458
1001.705940167577
1000.66487561869
1000
1000
1000.20619906947
997.4384470375959
1003.561203986274
1001.745975547585
992.0308132019272
998.845491455997
1000.986097827249
1002.140256987091
995.6876711023108
1000.846006870923
1000.488152014465
997.0865546887261
999.3582370170677
999.8921767917403
1000
1002.540126588952
1002.540125810414
1000.534683605302
1000.575839722585
990.8048903243346
998.2941822504084
999.6677037291678
999.0701638098138
999.0701639987217
999.9413479548492
1000.870484551412
992.0308196765263
999.0348349864778
1001.833060398951
1001.705938295033
998.6118101974773
996.2088665011194
1000
1000
1000
1000
1000
1000
1000
1000
1000
1000
1000
1000
1001.269729054561
997.4384457107542
993.5963716998097
1005.343962989409
1009.194232046484
1001.548827135333
1000.424756370555
1000
1000
1000.916952086123
1000
1000
1000.194724963578
1000.870486393772
990.804898876438
1002.540125308795
1002.540124499969
1002.111762354668
1002.111762637428
1000.664874953407
998.2941819441031
1002.028234833955
1002.028234609262
1002.457503690931
1000
1002.457503308291
998.611812705175
999.3344297306903
997.5170713624533
1000
999.0701629665655
1000.03735636189
999.0701628477385
1000
1000
1000
998.6194160371031
1000
999.1991825528164
1000.357980613959
1000
1000.273322423773
1000
1000.667748425467
996.7203874146182
1000
1000
1000
999.7040458643818
1000
1000
1000
1000.986098206172
1000.534684855292
1000
1000.684713592504
1000
1000
1000
1000
1000.53468424896
1000
1000
1000
1000.144523425677
996.6666804771033
1000
1015.604168856847
1001.164123676943
1000
1001.164123888334
1000