<VTKFile type="PolyData" version="1.0" byte_order="LittleEndian" header_type="UInt64">
  <PolyData>
    <Piece NumberOfPoints="1542" NumberOfVerts="1542">
      <Points>
        <DataArray type="Float64" Name="Points" NumberOfComponents="3" format="ascii">
0.1065724469601727 0.04648871907982313 0.004858749132930955
0.1256657894736842 0.008186842105263157 0.11305
0.1238929587107953 0.0347747727606322 0.05102680531106695
0.08951842105263157 0.008186842105263157 0.1218115384615385
0.1336210105392032 0.04593448160142972 0.02114406387989458
0.1423775162569348 0.02762248378662915 0.03323903134069659
0.1339942326136075 0.04631293855484164 0.01607896110524278
0.123687061335035 0.03600576738886557 0.01607896094863093
0.1519485079512375 0.0277136117599972 0.04051034189778049
0.116628947368421 0.008186842105263157 0.11305
0.142286388195524 0.01805149201043652 0.04051034189837292
0.1240655184607361 0.03637898942922453 0.02114406375545047
0.1361866228539286 0.03381337751231905 0.02267535383969978
0.1323031146764806 0.01723971617744165 0.02851982382231775
0.1527602838020491 0.03769688533778789 0.02851982386853153
0.1516078876709932 0.01839211232182108 0.05272337629302604
0.1317209713198917 0.0187036857837755 0.0331639280576552
0.1075921052631579 0.008186842105263157 0.11305
0.09855526315789473 0.008186842105263157 0.11305
0.1424786805106589 0.01754316722594687 0.02574367578342966
0.1524568327667984 0.02752131949532491 0.02574367576450504
0.1070562436075784 0.02493138067754966 0.01456720465771962
0.1524350994086112 0.02672364618501966 0.03392558992616507
0.08951842105263157 0.008186842105263157 0.11305
0.1432763537978373 0.01756490056639504 0.03392558995204888
0.1433519826359179 0.02664801738115276 0.01271864241631356
0.1239655965529709 0.01925493983861029 0.02549238136712317
0.1399956465320584 0.03000435342035767 0.07900366670071561
0.1381404635149767 0.03185953645957778 0.07770857043638818
0.121697519456184 0.06315186113624434 0.04594056710330011
0.1618131578947369 0.03529736842105263 0.1042884615384616
0.1416258691302258 0.02153550686093615 0.01632002996669516
0.1072059126790188 0.06279408732129742 0.05342588867219697
0.1484644931170059 0.02837413084388463 0.01632002993031384
0.1210912735856473 0.03935454557486993 0.0188383700948037
0.1310197940223952 0.02887585394833187 0.01005665206226239
0.1395200952541351 0.03047990459799024 0.005623389799282695
0.1618131578947369 0.02626052631578947 0.04295769230769231
0.1618131578947369 0.01722368421052631 0.04295769230769231
0.1618131578947369 0.008186842105263157 0.04295769230769231
0.1225205965998701 0.04747940341343304 0.05845316174312192
0.09627005526619196 0.02806276248761851 0.01031981677893806
0.1618131578947369 0.03529736842105263 0.03419615384615385
0.1005708480032362 0.04975308598908085 0.0530018031461671
0.1204606650833677 0.04192875002784271 0.05571022109896428
0.1419049101533656 0.0280950898601268 0.07964131225889663
0.1618131578947369 0.02626052631578947 0.03419615384615385
0.1304696223622085 0.03953037970249923 0.06295758526843825
0.1618131578947369 0.02626052631578947 0.1218115384615385
0.1499785116557479 0.02002148832805598 0.07348043002940267
0.1364907002304875 0.03350929977124917 0.07578383315376827
0.1618131578947369 0.01722368421052631 0.03419615384615385
0.1618131578947369 0.008186842105263157 0.03419615384615385
0.1618131578947369 0.03529736842105263 0.02543461538461539
0.144461147455927 0.03365278584571449 0.0752549135589592
0.1618131578947369 0.02626052631578947 0.02543461538461539
0.1618131578947369 0.01722368421052631 0.02543461538461539
0.1437394736842105 0.008186842105263157 0.08676538461538462
0.1275819584976118 0.0341280546374097 0.05975472726865733
0.1375704170060915 0.0225728420311485 0.07407859247929768
0.1618131578947369 0.008186842105263157 0.02543461538461539
0.1182392102783435 0.04403993744932073 0.01650184965564284
0.1482891990795961 0.02171080090819394 0.07690990606357774
0.1437394736842105 0.008186842105263157 0.09552692307692309
0.1347026315789474 0.008186842105263157 0.09552692307692309
0.1527763157894737 0.008186842105263157 0.08676538461538462
0.1527763157894737 0.008186842105263157 0.09552692307692309
0.1474271580045137 0.03242958295867651 0.07407859250640564
0.1618131578947369 0.03529736842105263 0.01667307692307693
0.1618131578947369 0.02626052631578947 0.01667307692307693
0.1618131578947369 0.01722368421052631 0.01667307692307693
0.08877636413652054 0.03072202248610803 0.005676992556317074
0.1162885689374726 0.04608798004038554 0.05328241023463331
0.1022297741962688 0.06777022579837948 0.02800200466782057
0.1304183340532861 0.02896779334003775 0.04890392741631023
0.1618131578947369 0.008186842105263157 0.01667307692307693
0.1618131578947369 0.03529736842105263 0.007911538461538463
0.1339495068427154 0.02579808186661213 0.06342324350031858
0.1618131578947369 0.02626052631578947 0.007911538461538463
0.1442019181438737 0.03605049314982913 0.06342324351321735
0.1618131578947369 0.01722368421052631 0.007911538461538463
0.1618131578947369 0.008186842105263157 0.007911538461538463
0.1527763157894737 0.008186842105263157 0.01667307692307693
0.09667158288648534 0.03879701454508812 0.04056433891553118
0.125391019539758 0.04460898063817965 0.06056236224578818
0.1527763157894737 0.008186842105263157 0.02543461538461539
0.1527763157894737 0.008186842105263157 0.03419615384615385
0.1347026315789474 0.008186842105263157 0.08676538461538462
0.1191996076560741 0.06000715895143866 0.05116672794056977
0.08765066864362327 0.04357386876869163 0.03582215569667403
0.1527763157894737 0.008186842105263157 0.04295769230769231
0.1145063911812672 0.02186296481557632 0.01929567291435463
0.1099928410740732 0.05080039228757683 0.05116672794529303
0.116628947368421 0.008186842105263157 0.1218115384615385
0.1618131578947369 0.02626052631578947 0.08676538461538462
0.1527763157894737 0.008186842105263157 0.05171923076923078
0.08747737382792636 0.03374191516911799 0.03745016136705821
0.09274786273127077 0.03324969266448299 0.03724184548499775
0.1527763157894737 0.008186842105263157 0.06048076923076924
0.1318042524164768 0.0472149562454434 0.05597744299020711
0.1158039362821612 0.06392145014973243 0.04419351760029122
0.1527763157894737 0.008186842105263157 0.0692423076923077
0.1527763157894737 0.008186842105263157 0.07800384615384616
0.1347026315789474 0.008186842105263157 0.03419615384615385
0.1437394736842105 0.008186842105263157 0.03419615384615385
0.1135024324876506 0.03596912786416472 0.0004610649814686776
0.1618131578947369 0.008186842105263157 0.09552692307692309
0.1382903742619778 0.03845078587101446 0.0673591470309155
0.1512770025995536 0.01872299738255344 0.03365501799195979
0.09330615934860184 0.03087082850289958 0.03427673498642143
0.1507533870418983 0.01924661297967734 0.02217152875207298
0.1286764552622689 0.0310984327065664 0.05455376951514557
0.1618131578947369 0.03529736842105263 0.1218115384615385
0.14746157068125 0.02253842936923494 0.01528223836955946
0.08769276794466709 0.02955960169267298 0.03162304738490679
0.1414646454761339 0.02853535451697288 0.005662393476128777
0.1411241459426991 0.03898020597597836 0.01005665190353582
0.1473918432937936 0.0337611666462644 0.07010493546192784
0.1347026315789474 0.008186842105263157 0.04295769230769231
0.1437394736842105 0.008186842105263157 0.04295769230769231
0.1464738680709115 0.02352613192013879 0.07857956737507547
0.08910415288281531 0.04842947750419383 0.02025516558482159
0.08834062839489271 0.05341926210294385 0.002073735240074358
0.1041757976132848 0.07145075650501995 0.04424602928752617
0.1347026315789474 0.008186842105263157 0.05171923076923078
0.1437394736842105 0.008186842105263157 0.05171923076923078
0.1347026315789474 0.008186842105263157 0.06048076923076924
0.1105297189043381 0.04018883478054698 0.04301880908140688
0.1143798062605995 0.04241814699560532 0.04784853023537956
0.1437394736842105 0.008186842105263157 0.06048076923076924
0.1347026315789474 0.008186842105263157 0.0692423076923077
0.1437394736842105 0.008186842105263157 0.0692423076923077
0.1347026315789474 0.008186842105263157 0.07800384615384616
0.1437394736842105 0.008186842105263157 0.07800384615384616
0.1527763157894737 0.008186842105263157 0.11305
0.1068481388538493 0.04830248057562163 0.0459405671432434
0.1347026315789474 0.008186842105263157 0.007911538461538463
0.1437394736842105 0.008186842105263157 0.11305
0.1437394736842105 0.008186842105263157 0.007911538461538463
0.1347026315789474 0.008186842105263157 0.1218115384615385
0.1051110367694193 0.0290876287714829 0.0107426340958093
0.1618131578947369 0.008186842105263157 0.1218115384615385
0.1527763157894737 0.008186842105263157 0.1042884615384616
0.1347026315789474 0.008186842105263157 0.1042884615384616
0.1618131578947369 0.03529736842105263 0.08676538461538462
0.09368914646207589 0.02869499233487406 0.02846952470048763
0.1363472141304173 0.02553885256735254 0.07525491353343262
0.1275818530245079 0.05562019375724654 0.04784853020477894
0.1358719453368504 0.04241804153514327 0.05975472715761097
0.1347026315789474 0.008186842105263157 0.01667307692307693
0.1350283148123385 0.03497168495771169 0.0708654289852276
0.1010878068545918 0.04837109397022097 0.03619578695626059
0.1618131578947369 0.01722368421052631 0.09552692307692309
0.08791191182223111 0.02897114960064248 0.02291995312712085
0.1437394736842105 0.008186842105263157 0.01667307692307693
0.1327525410733548 0.02565057831285614 0.0150936890422818
0.1432090358634665 0.02679096411365923 0.07971926038239914
0.1618131578947369 0.06240789473684209 0.1042884615384616
0.1347026315789474 0.008186842105263157 0.02543461538461539
0.1437394736842105 0.008186842105263157 0.02543461538461539
0.1233513911774634 0.02004448956482058 0.02233965317982079
0.1202469139830442 0.06942915198210885 0.05300180311915602
0.1618131578947369 0.05337105263157894 0.1042884615384616
0.1135823351088908 0.02344158206917522 0.01666159422401031
0.1618131578947369 0.04433421052631578 0.1042884615384616
[...]
      <PointData>
        <DataArray type="UInt64" Name="type" format="ascii">
1
0
1
0
1
1
1
1
1
0
1
1
1
1
1
1
1
0
0
1
1
1
1
0
1
1
1
1
1
1
0
1
1
1
1
1
1
0
0
0
1
1
0
1
1
1
0
1
0
1
1
0
0
0
1
0
0
0
1
1
0
1
1
0
0
0
0
1
0
0
0
1
1
1
1
0
0
1
0
1
0
0
0
1
1
0
0
0
1
1
0
1
1
0
0
0
1
1
0
1
1
0
0
0
0
1
0
1
1
1
1
1
0
1
1
1
1
1
0
0
1
1
1
1
0
0
0
1
1
0
0
0
0
0
0
1
0
0
0
0
1
0
0
0
0
1
1
1
1
0
1
1
0
1
0
1
1
0
0
0
1
1
0
1
0
1
0
0
0
0
0
1
0
1
1
1
1
1
0
0
1
1
1
1
0
1
1
1
1
0
0
0
0
0
0
0
0
0
0
1
1
0
1
1
0
0
0
0
0
0
0
0
0
0
0
1
1
0
0
0
0
1
0
1
1
0
1
0
1
1
1
0
0
0
0
1
0
0
0
0
0
0
0
0
1
1
1
1
1
1
1
1
0
1
1
1
1
0
0
1
1
1
0
0
1
0
0
0
1
1
1
1
0
0
1
1
1
0
0
0
0
1
1
1
0
1
0
0
0
0
0
1
1
0
0
0
0
0
1
0
0
0
0
0
0
1
1
1
0
0
0
0
0
1
1
0
0
0
0
0
1
1
0
0
0
0
0
1
1
1
1
1
1
1
1
1
1
1
1
1
1
1
1
0
0
0
0
0
1
1
1
0
0
1
0
0
0
1
0
0
0
0
0
1
1
0
0
1
0
0
0
0
1
0
1
1
0
1
0
1
1
1
1
1
0
1
1
0
0
0
1
1
1
1
1
1
1
1
1
1
1
1
1
1
1
1
1
1
1
1
1
1
1
1
1
1
1
1
1
1
1
1
1
1
1
1
1
1
1
1
1
1
1
1
1
1
1
1
1
1
1
1
1
1
1
1
1
1
1
1
1
1
1
1
1
1
1
1
1
1
1
1
1
1
1
1
1
1
1
1
1
1
1
1
1
1
1
1
1
1
1
1
1
1
1
1
1
1
1
1
1
1
0
0
1
0
0
0
0
1
0
1
1
0
1
1
0
0
0
0
0
0
1
0
1
1
1
1
1
1
1
1
1
1
1
1
1
1
1
1
1
1
0
0
0
0
0
1
1
0
0
1
1
1
1
1
1
1
1
1
1
1
1
1
1
1
1
1
1
0
0
0
0
0
0
0
0
0
0
0
0
0
0
1
1
1
1
1
1
1
1
1
1
1
1
1
1
1
1
1
1
1
1
1
1
1
1
1
1
1
1
1
1
1
0
1
1
1
0
1
1
1
1
1
1
1
1
1
1
1
1
1
1
1
1
1
1
1
1
1
1
1
1
1
1
1
1
1
1
1
1
1
1
1
1
1
1
1
1
1
1
1
1
1
1
1
1
1
1
1
1
1
1
1
1
1
1
1
1
1
1
1
1
1
1
1
1
1
1
1
0
0
0
0
1
1
1
1
1
1
0
0
0
0
0
0
0
0
0
0
0
0
0
0
0
0
0
0
0
0
0
0
0
1
1
1
1
1
1
1
1
1
1
1
1
0
0
0
0
0
0
0
0
0
1
0
0
0
0
0
0
0
0
0
0
0
0
0
0
0
0
0
0
0
0
0
0
0
0
0
0
0
0
0
0
0
0
0
0
0
0
0
0
0
0
0
0
0
0
0
0
0
0
0
0
0
0
0
0
0
0
0
0
0
0
0
0
0
0
0
0
0
0
0
0
0
0
0
0
0
0
1
1
1
1
1
1
1
1
1
1
1
1
1
1
1
1
1
1
1
1
1
1
1
1
1
1
1
1
1
1
1
1
1
1
1
1
1
1
1
1
1
1
1
1
1
1
1
1
1
1
1
1
1
1
1
1
1
1
1
1
1
1
1
1
1
1
1
1
1
1
1
1
1
1
1
1
1
1
1
1
1
1
1
1
1
1
1
1
1
1
1
1
1
1
1
1
1
1
1
1
1
1
1
1
1
1
1
1
1
1
1
1
1
0
0
1
1
0
1
1
1
1
1
1
0
0
0
1
0
0
0
0
0
0
0
0
1
1
1
0
0
0
0
0
0
0
0
1
1
1
1
0
0
0
1
1
1
0
0
1
1
1
1
1
1
0
1
0
0
1
1
1
1
1
0
1
1
0
1
1
1
1
0
1
0
1
0
0
1
1
1
1
1
1
1
1
1
1
1
1
1
1
1
1
1
1
1
1
1
0
0
0
0
0
0
0
0
0
0
0
0
0
0
0
0
0
0
0
0
0
0
0
0
0
1
1
1
1
1
1
1
1
1
1
1
1
1
1
1
1
1
1
1
1
1
1
1
1
1
1
1
1
1
1
1
1
1
1
1
1
1
1
1
1
1
1
1
1
1
1
1
1
1
1
1
1
1
1
1
1
1
1
1
1
1
1
1
1
1
1
1
1
1
1
1
1
1
1
1
1
1
1
1
1
1
1
1
1
1
1
1
1
1
1
1
1
1
1
1
1
1
1
1
1
0
0
0
0
0
0
0
0
0
0
0
0
0
0
0
0
0
0
0
0
1
1
1
1
1
1
0
1
0
1
1
0
1
1
0
1
1
0
1
1
0
1
1
0
1
1
1
1
1
1
1
1
1
1
1
1
1
1
1
1
1
1
1
1
1
1
1
1
1
1
1
1
1
1
1
1
1
1
1
1
1
1
1
1
1
1
1
1
1
1
1
1
1
1
1
1
1
1
1
1
1
1
1
1
1
1
1
1
1
1
1
1
1
1
1
1
1
1
1
1
1
1
1
1
1
1
1
1
1
1
1
1
1
1
1
1
1
1
1
1
1
1
1
1
1
1
1
1
1
1
1
1
1
1
1
1
1
1
1
1
1
1
1
1
1
1
1
1
1
1
1
1
1
1
1
1
1
1
1
1
1
1
1
1
1
0
0
0
0
0
0
0
0
0
0
0
0
0
0
0
0
0
0
0
0
0
0
0
0
0
0
0
0
0
0
0
0
0
0
0
0
0
0
0
0
0
0
0
0
0
0
0
0
0
0
0
0
0
0
0
0
0
0
0
0
0
0
0
0
0
0
0
0
0
0
0
0
0
0
0
0
0
0
0
0
0
0
0
0
0
0
0
0
0
0
0
0
0
0
0
0
0
0
0
0
0
0
0
0
0
0
0
0
0
0
0
0
0
0
0
0
0
0
0
0
0
0
0
0
0
0
0
0
0
0
0
0
0
0
0
0
0
0
0
0
0
0
0
0
0
0
0
0
0
0
0
0
0
0
0
0
0
0
0
0
0
0
0
0
0
0
0
0
0
0
0
0
0
0
0
0
0
0
0
0
0
0
0
0
0
0
0
0
0
0
0
0
0
0
0
0
0
0
0
0
0
0
0
0
0
0
0
0
0
0
0
0
        </DataArray>
        <DataArray type="Float64" Name="density" format="ascii">
997.1620178633258
1000
999.5805145082754
1000
1000.945594873166
1007.178628576537
1004.866971461128
1004.866971354344
999.824855049548
1000
999.8248554091338
1000.945594969581
996.1990713389655
998.4429165051012
998.4429165661843
998.4212869728406
1000.011696501915
1000
1000
996.3616083377715
996.3616081087118
998.046713574975
999.0282029794063
1000
999.0282031922399
1004.225517226023
998.4605879068688
1000.664720484537
1000.328630558033
999.3398533825532
1000
999.4398167459749
1002.292977271616
999.4398167074086
1002.632053904903
1000.277805616074
999.475514929391
1000.009818630243
1000
1000
1000.275379463731
1000.812655036396
1000
998.9355139591173
999.500550608671
1000.085540717077
1000
1000.429361000835
1000
1000.276885314321
1000.808193572088
1000
1000
1003.144031020091
999.9779828448368
1000.99255386797
1000
1000
998.8162395220052
1000.06814499947
1000
999.9059760767528
998.8292979411199
1000
1000
1000
1000
1000.068144990616
1000.57555333123
1000
1000.081693269855
1001.620905803348
1000.418397768305
996.0113390324569
1001.257027751994
1000.1043085594
1014.332012816135
1000.976508166902
1000.195696322407
1000.976508210186
1002.361642236961
1000.92328476228
1000.081693162685
999.6693382735564
1000.048692956771
1000
1000
1000
999.5883401642476
1000.716832356613
1000
1001.662239549587
999.5883412702759
1000
1000
1000
997.7486394690236
999.0102773228916
1000
998.950390792253
996.7402431206392
1000
1000
1000
1000
996.1820666307829
1000
999.7389448159183
998.6429870514608
999.3058938063182
996.1057243630966
999.4583036082998
1000
997.8969035021439
1000.445160614233
999.0326243190261
1000.277805257559
999.2654583485823
1000
1000.00981860739
999.5689263135658
989.8916884524314
998.9298009729663
998.1125023242381
1000
1000
1000
996.6190349893071
1002.579172358039
1000
1000
1000
1000
1000
1000
999.3398531548823
1014.332012858264
1000
1000.19569620675
1000
1001.800497047628
1000
1000
1000
1000
999.0313738974198
999.9779828263751
1002.579171449677
998.8162392186828
1000.575553451371
999.6578364457307
1000.189218654768
1000
1006.832833725863
1000
999.6982577577518
999.3507230121797
1000
1003.144031411833
1000.992553885564
1000.59409170776
998.9355148816984
1000
1001.431087119507
1000
1002.001335309065
1000
1000
1000
1000
1000
999.6982578912297
1000
1001.866863223116
999.7389448683274
998.1759517464263
1008.501626802625
1002.570668123035
1000
1000
998.1759516080278
998.5668793824564
1001.863055001095
1000.502144338164
1000
1000.799895243597
999.3224276818976
1003.923154814379
986.6649969328665
1000
1000
1000
1000
1000
1000
1000
1000
1000
1000
1000.20890839423
1002.324009745599
1000
1000.79989625545
997.8977706248102
1000
1000
1000
1000
1000
1000
1000
1000
1000
1000
1000
1000.814174687763
1000.418396679483
1000
1000
1000
1000
1000.83253330211
1000
1000.814175630095
998.7091366480257
1000
1001.138052970164
1000
999.7389726570819
1000.579537227631
999.2654582683771
1000
1000
1000
1000
1000.664931261024
1000
1000
1000
1000
1000
1000
1002.361642118189
1000
999.6861888277032
1000.46949149172
998.9503911606158
1000.223747590252
999.6861894374354
999.4583035219141
1000.010902178199
997.878832307186
1000
997.4395615838245
997.6133176895675
999.5805141016232
997.6133168575734
1000
1000
992.7916843747814
992.7916844207837
1001.490457320288
1000
1000
1009.310608915162
1000
1000
1000
998.7439347300849
1000.530520695733
998.7439355097865
1000.011696509919
1001.037835246323
1000
997.992998227341
997.9929975848586
1000.419606610265
1000
1000
1000
1000
997.4147865778964
981.9886823613805
993.9122137924699
1000
998.3582796950898
1001.678039241318
1018.644218709387
1020.21874387716
1009.998412618363
1001.470002051612
998.3582797659445
1002.060625362155
1000
1000
1000
1000
1000
1002.060625314983
1000
1000
1000.30134860835
1000
1000
1000
1001.166285637906
997.5157624762118
999.5005498861992
1000
1000.000603756917
1000
1000
1000
999.9764317049293
997.5157629004418
1000
1000
1000
1000
1000
999.9098215682895
1001.289311846464
1000
1000
1000
1000
1000
1000.628055155628
1002.098088629612
1001.289311896228
1000.29776830611
1002.932789811719
1000.297768840431
998.2371074583132
994.0817509552119
999.5805956628689
1000.189734767079
1002.934799996171
1000.548492375773
1001.47762195936
997.414785467981
994.6708938080621
1000.301066659578
1001.037834807284
1000
1020.218743893107
1018.644218346955
1001.678038877266
1001.166285294124
1000.301067228835
997.856159544722
1000
1000
1001.257027801261
1000
1000
1000
1000.484997335079
1000
1000
1000
1000
1000.000603756818
989.8463836046762
997.767697598683
1000
1000
992.059485490202
1000.301348614947
1000
1000
1000
998.8527658774184
1000
997.1620181459144
997.1308742995037
1000
990.1457036184804
1000
999.4891097198921
998.0467136027094
1001.866863331494
1008.501626876792
998.4605883358632
1000
1001.431086810117
996.1820678961773
1000
1000
1000
1001.332971841198
996.8390623618735
1001.662239555935
1000.594091937615
1001.991692360894
1005.60245437544
1003.480541378915
987.8189776177563
1004.456851555338
1002.324010292763
998.5456018932107
986.1428190879304
988.2801451228244
1013.160451637421
1000.935248503691
999.64138886353
1000.832533145961
1001.187710336536
1004.456852273825
996.8390635445764
1001.332972101664
999.3460168954471
1000.280863068368
998.8251021218239
1005.602454466558
990.1457028350576
999.3460173343981
1002.632053629882
1001.468886398875
1000.280863057211
989.8463837927923
997.7676977962591
987.8189777631635
1007.01957800775
1001.991692785986
1001.682344890084
1002.967410842398
1001.395178468773
996.7402429298196
1001.532921990207
1013.160451246798
994.1568357841376
999.9059755248699
1000.636259269602
1003.34697341181
1001.554176599859
992.8677846646746
1002.967411073512
1003.039507093853
996.8552288801726
1003.34697435241
1000.935248427952
1004.164776141719
998.7644203404625
998.0046712931984
996.8552283004858
996.8826228172953
998.7644199185366
1007.019578253146
1004.164775970296
999.6413877391735
998.8251014904946
1001.532921921652
1000.530519604135
1001.268457338229
997.9738014092048
1002.956898275079
988.2801442769094
1000.098888357341
1001.395178111681
998.1125024769466
1000.95880995008
997.9738012614944
1001.554176911769
999.6693373991882
1001.107415228818
1000.526064042871
1000.448830673797
1001.849899095754
1001.849899235126
999.489109705578
1000.058893656731
1000.086806365791
1000.08680553951
1000.181043346596
1000.181043664038
999.7389728531175
1001.18770975169
996.6190346838879
999.9152172252584
1000.189218720817
995.0006942908844
1001.682345853088
1001.468886490211
1000.899243341628
1001.869665527004
1001.869665695488
1001.138053292843
1001.863053944421
1001.107415226481
994.849590233245
1001.992659629914
1000
1000
994.8495903304461
1000
1000
1000
1000
998.5668791861268
1000
998.004671742401
992.8677849579408
1000
994.1568358940751
1002.956898501402
1000
1000
1000
1000
1000
1000
1000.058894547776
1000
1002.535298236975
1000.098887990264
1001.992660007367
1000.899243294129
1000.113831323615
1000.156779173511
1002.086483858983
1000.814175934913
999.3398537223409
1000.0868056685
1002.32400941005
1002.579171611692
996.6190347585153
990.1457025123907
997.1308735984437
992.0594851286033
989.8463837266657
1000.50214483505
1000
1000
1000
1000
1000
1000.058893934838
1000.526064537249
1000
1009.998412586925
1002.570667540512
1000.812655355636
997.9738013751025
1001.863053717325
988.2801453258149
1000.098888362795
1000.83253312396
997.8788324922061
999.7389727398373
996.8552287218021
999.3460174936332
999.5883403945043
999.4891097722228
999.3058938000453
1001.395177434169
1001.532921780169
1002.956898287612
996.1820681454204
1020.218743859249
1018.644218258854
1000
1000
1000
1000
1000
1000
1000
1000
1000
1000
1000
1000.000603756717
999.0313726036225
996.8390617366586
1001.431086440651
1003.923156021064
1000.79989618254
1001.554177150978
1001.866863444291
1002.001334851596
1005.60245380904
1000.280863024965
1001.80049677182
1001.662239549018
992.8677844364439
1013.160451845241
986.1428193071098
998.8251022479593
1001.468886425009
999.6693374922035
998.0467141089379
997.162018402207
996.8826238522307
1000.899243272286
1004.164776538534
1001.992659636671
1003.480542565013
987.8189782815274
998.0046709706959
1001.682346120268
998.1125023943724
1001.268457565941
998.1125027392382
1000
999.9764319165533
997.878832501339
1000.189219334951
1000
1000.636259160393
994.1568360646027
997.3891315987393
1000.636259224428
999.5984018333291
999.5984017682007
999.5984017103139
999.5984019346635
1001.477622089457
1001.477622592019
1001.477622378079
1000.548492007457
1000.548492415415
1000.548492135973
994.1568356316099
997.3891315689692
997.3891316600183
999.580595979503
999.580595768712
999.5805958358771
997.3891316168365
1002.0980887757
1002.098088795655
1002.098088818335
996.0113388924099
1001.800496993382
995.0006936995934
1000.63625929332
999.0102774438983
1000.716831650887
1000.156778993691
997.7486401673664
1002.932789936722
1000.484997252884
1000.11383123294
1002.934800304496
986.6649966885327
999.0102772853131
1003.039507268705
1002.934800463855
999.3058934977547
989.8916885981743
1000.526064481839
999.0313733541972
996.8826232838551
1003.923155082488
1000.958809724984
1000.958809781135
998.9298014119559
986.1428191066732
998.9298011830097
1000.716831667
1000.445160565136
1003.480541822592
992.0594853777795
1006.832834140008
998.54560386611
1000.445160686037
1006.832834274481
986.6649966091883
1002.086484189037
1000.22374668958
1000.223746518773
1000.156778675596
997.7486404056137
1000.113831259098
1003.039507165006
989.8916884777165
1002.932790398633
1002.001335240151
1002.570668034751
1000
1000
1000
1000
1002.086484164195
1000.484997284438
1000.812654799949
1001.620905503342
1001.620905745673
1001.268457665331
1000
1000
1000
1009.998412674656
1000
1000
1000
1000
1000
1000
1000
1000
1000
1001.470001413731
1000
1000
1000
1000
1000
1000
1000
1000
1001.470001483125
997.8977705030594
997.8977710228348
1000.502144966513
999.9764319904832
1000.62805558375
1000.628055308811
999.9098222974937
999.9098215816625
1000.448831170691
1000.448831153622
998.5456021201499
999.9764320273229
1000
1000
1000
1000
1000
1000
1000
1000
1000
997.1308735070204
1000
1000
1000
1000
1000
1000
1000
1000
1000
1000
1000
1000
1000
1000
1000
1000
1000
1000
1000
1000
1000
1000
1000
1000
1000
1000
1000
1000
1000
1000
1000
1000
1000
1000
1000
1000
1000
1000
1000
1000
1000
1000
1000
1000
1000
1000
1000
1000
1000
1000
1000
1000
1000
1000
1000
1000
1000
1000
1000
1000
1000
1000
1000
1000
1000
1000
1000
1000
1000
1000
1000
1000
1000
1000
1000
1000
998.9355149435816
1007.01957770107
1000.418396561418
998.5668793180314
998.7644207821892
996.7402435474422
1001.166284000593
994.1568354505466
992.8677854428054
1001.532921677954
996.855229145893
997.1620183932794
1001.992659312035
1000.81417508444
1000.54849234683
999.5883415478922
1002.292977334401
998.7091370265126
994.1568358326413
1000.636259324035
998.7091366543682
1002.292977212429
998.8527657879072
1000.058894143693
1001.468886360612
1001.554177137625
998.1125025571675
998.9355141738065
1001.395178460076
1002.967411084976
998.7644197006466
1001.554177021131
996.8552283934213
1001.554176651089
1001.992659568287
996.7402427379797
1001.554176390371
998.7644209916506
1002.932789242589
998.7644203652445
999.3398527967557
994.1568356429879
995.0006940624569
999.9152171191932
996.8552289607495
1000.79989502294
1001.477622204095
998.8251021560565
1001.468886480334
998.8251016003207
1001.107415278303
994.1568360367595
1001.992659602857
1002.967410864204
997.973800792741
1000.280862753679
1000.05889417896
1000.899243192928
995.0006943179351
1001.468886355355
1002.098088882428
1002.098088786464
999.9152172622126
1002.32400990104
1001.682345042206
996.0113390265259
996.0113388293266
999.9764317871401
999.9764320641722
998.8527656866222
998.8251019980913
998.825101524604
1000.189218845645
1000.086806150777
1000.058894269849
1000.628055430918
1000.628055110343
999.9098211704597
999.9098221665159
998.1125020689258
998.1125025709176
1002.934800421961
1000.548492079863
998.1125023360416
1001.477622417708
1001.107415219374
1002.932790437281
1000.058893955739
1000.636259257564
1002.934799908508
999.580595864481
1001.468886440992
1001.992660049764
999.5805959408912
999.9764319561522
1000.548492576752
1001.477622220567
997.3891316903151
999.5805956537602
999.598401841168
999.5984019203981
999.5984021321817
999.5984021556312
997.3891316428466
1002.09808871615
997.3891316834289
997.3891317358143
1000.636259417578
998.0467137516936
1000.812654799002
1002.570667859803
1001.268457394955
1002.579171935469
1000
1000
1001.620905700218
997.7486393902776
1000
1002.086484261661
999.3058936003183
1000.445160516128
997.8788322972815
1001.8004971844
999.0313735404754
1000
1000
1000
1006.832833448853
1000
1000
1000
1000
1000
1000
1000
1000
1000.502144380385
1003.923154311785
986.6649967656892
1000
1000
1001.470002251503
1000
1000
1000
1000
1009.998412690056
997.8977706064118
1005.602455374755
1000.223746915954
992.0594850825479
1020.218743647212
1000
1000
1003.480539888424
999.0102773116123
1013.160451171296
1000
1000
1002.001335351721
996.1820678026112
1001.431087369918
1001.866862834241
996.8390638680902
986.1428214736126
1000
998.5456031059157
1000
1000
987.8189772777072
999.6693389950736
997.1308735580134
1000.716832329254
988.2801444252059
1000
996.8826226348037
1000.156779201971
1000
1000.832533454793
999.7389729393635
999.3460171007865
1002.956898452924
1000
1000.526063835078
1000
1000.09888800918
1000
1000
999.4891098942161
996.6190344406152
1001.863055093358
1004.164776084681
1000.636259262463
1001.477622024557
1000.548491870471
1002.934799860523
999.5805960705243
1002.932789448814
998.9298008874431
1003.039507080995
1000.484997285182
1000.113831370392
1000.958810039347
1002.098088940259
989.8916886866541
999.9764320123551
1000.628054995286
999.9098213228019
1000.44883099638
1000
1000
1000
1000
1000
1000
1000
1000
1000
1000
1000
1000
1000
1000
1000
1000
1000
1000
1000
1000
1000
1000
1000
1000
1000
996.8552287994386
998.7644205643113
996.7402433089469
1000.899243465436
1002.086482921502
999.5883415835541
999.7389723711184
1002.932789283439
1000.484997892215
998.935513939599
998.9503907795564
998.9503912472156
1002.967410827387
998.8162394092052
998.8162391256577
1000.068145280411
996.7402428528834
1000.716832229249
998.8527657092666
1001.554176553056
999.5689269376718
999.3398527751373
1002.579172260618
1000.530520183848
999.5805144592359
999.5805146123593
1002.934799961633
1002.53529838875
999.4583037816953
999.4583037197986
1000.530520527681
1003.039507155178
1000.086806457012
1002.324009872749
996.6190344873912
999.2654587441126
1000.976508699145
992.8677856272683
1000.189219158141
1002.956898523549
1000.976508564765
997.1308735033197
1001.532921867873
1004.164776209734
1013.160451184996
986.142821755309
987.8189776141442
1003.480539966054
996.8390639855356
1001.863054892126
1001.866862658798
1002.00133562998
1001.431087217235
996.1820678292798
1000.113831302612
988.2801446713651
998.8251015363689
1002.967410563598
1002.63205362348
1002.632053941724
1000.958809992844
993.9122142754867
997.7676973574081
1000.297768361479
1001.28931146475
1002.932790501755
1002.934800473378
997.9929980747711
1000.156778887534
1001.863054245005
1001.800497289935
999.3460168889784
998.0467137083839
1000.832533313607
997.1620186276851
989.8916883965304
997.8788322734415
998.9298013895419
1000.328630314508
1000.223746720453
992.0594852436366
999.3507229962827
999.3224277794615
999.0313736801153
999.9152169739791
1000.80819332864
1001.395178777651
999.5005497954132
1006.832833753506
998.5456024621355
1000.156778828476
1005.602455196148
1003.9231544601
1001.187710143956
997.8788321876848
999.686188339108
999.6861895591087
997.613316618355
997.6133177277796
999.0326242455064
1000
1000
1000
1000
1000
1000
1000
1000
1000
1000
1000.009818638973
1000
1000
1000
1000.992554039993
1003.14403115068
1000
1000.57555347192
1000.195696383564
1014.332012891284
989.8916886787199
999.4755145688252
1001.107415269594
1001.166285803089
999.4398167336336
998.929800970709
1001.678038867631
999.9779827513951
1001.03783480366
999.5005503934814
1000.6280551035
1000
999.9779827055136
999.6693369154355
1000
1000.664720243246
1000.526063421456
1000
1000.098888195502
996.882622714417
1000
998.9355147354191
1000.62805535018
1000
999.9098211488722
1000.448831121389
1000.448831033201
1004.225516837759
998.7439369314025
998.743934850353
1000.277805983803
1000.277804936176
1001.268457207279
1001.992660024762
1001.332972022608
1001.332972573579
1000.799894636148
999.6982577371767
996.3616081870362
999.6982576157226
1000.010902772898
996.8552283913727
999.7389446047871
1008.501626789037
1008.501626710864
997.9738006958195
1000.28086312
1002.570668252868
1000.08554051362
992.7916850666487