<VTKFile type="PolyData" version="1.0" byte_order="LittleEndian" header_type="UInt64">
  <PolyData>
    <Piece NumberOfPoints="2157" NumberOfVerts="2157">
      <Points>
        <DataArray type="Float64" Name="Points" NumberOfComponents="3" format="ascii">
0.03681265691264039 0.01913825964673748 0.02150613812384733
0.0351205663748797 0.02793809577791864 0.01044748342636161
0.1118005668921327 0.03780887582643722 0.05578296657583037
0.04618617428419321 0.03413879899011571 0.1042399957864896
0.05819943311023773 0.03780887582348655 0.05578296657375373
0.03780887582157384 0.05819943311154484 0.05578296657527994
0.06486868875950359 0.03415157778597174 0.04867212088399052
0.04302345568955278 0.04302345569142116 0.1217322463303742
0.04679670198865771 0.05632929247857596 0.09832649585584397
0.06135122825458245 0.05004789764024084 0.04883758490723248
0.08912520647186845 0.03057164365436978 0.02828364749044507
0.04264573072096888 0.04953846763066797 0.01259642134935064
0.04953846762375611 0.04264573071755163 0.01259642135052844
0.05004789763839226 0.06135122825312039 0.04883758490860201
0.04230605713442806 0.05108032132576632 0.1163579807920358
0.02743201270719325 0.01767505126059573 0.04403502051370609
0.08090804272321753 0.04272782620610183 0.02164690858815617
0.08909195727607849 0.04272782620923644 0.02164690859008236
0.05108032132648692 0.04230605713956354 0.1163579807918989
0.0309859852400749 0.03098598533022212 0.1224152698022889
0.04470170988690084 0.04470170988982868 0.05205975109854537
0.07238227978076882 0.04291951774409288 0.02336394563879575
0.07935665236085566 0.03441337198696189 0.002754488735196644
0.08060165005421462 0.01869462723812445 0.02981138906597931
0.07220276214881846 0.01798234858205804 0.03290915061561969
0.07404174560574119 0.0315833077832439 0.008955591123324027
0.1326270712066784 0.03737292878760762 0.1223377502765449
0.03619847273644711 0.05117124178964571 0.05421421763471237
0.02290364399989933 0.02290364400254111 0.1210791325145976
0.01767505125898548 0.02743201271440347 0.0440350205173709
0.07882600516862916 0.02102119860967729 0.01918462703138874
0.02619642896302955 0.02619642896363476 0.03716128727207735
0.04943882550313199 0.03440839310736047 0.004411701462196872
0.05821035546216692 0.03094790797434809 0.006061902489600489
0.03088682679729057 0.04402722527969519 0.02743753496747187
0.04299887795800925 0.02436140893244265 0.01787108587343016
0.05117124178460741 0.03619847273713673 0.05421421763505701
0.04443804494771628 0.03534674702069526 0.1166619858312227
0.08238867181153792 0.02708155651620399 0.01103751821643384
0.04402722528586071 0.03088682678478556 0.02743753497565824
0.03534674701694359 0.04443804494964598 0.1166619858335337
0.0738465800081875 0.02292963045220162 0.01793474421215223
0.07433998810187802 0.04648744405592877 0.01793546099907704
0.06730630693429274 0.04839636172898799 0.04511468930085998
0.1075103644807611 0.0202957685450791 0.06081617240640193
0.05869936047779546 0.04272674732640648 0.1142268253042907
0.06248963551898672 0.0202957685481213 0.06081617240131139
0.08151197786341106 0.0241366646445434 0.01771644213334467
0.03971287261562947 0.0397128726190651 0.1222936655076917
0.02029576854517988 0.06248963552175843 0.06081617240910649
0.1247097401657393 0.0196900012431527 0.06376491361418844
0.07224095906492545 0.019155543075184 0.04022748988768274
0.08082424441118465 0.02007008844652802 0.03796857482998127
0.05762627396646744 0.02332008021618472 0.01957904909567228
0.05058982531293435 0.05058982531231918 0.1098202758948841
0.04529025983806468 0.01969000124214176 0.0637649136187329
0.01969000124252264 0.04529025983683796 0.06376491361861918
0.03276850250575317 0.04084307573061998 0.0583792158419907
0.04084307572761301 0.03276850250640202 0.05837921584056985
0.09566001189750967 0.04648744406338633 0.01793546099564315
0.05489642976224151 0.05489642976228789 0.04554736855189189
0.0835370473889098 0.03081817655039679 0.00380446552419197
0.08172917790910166 0.04697814638473425 0.04204454901100795
0.07365002158229245 0.03953835753541633 0.0493297375479343
0.09634997841679996 0.03953835754084783 0.0493297375524189
0.09520846427968684 0.04730451464118838 0.04233344902307517
0.07479153572029881 0.0473045146418886 0.04233344902927363
0.1272911925485433 0.03437550267204335 0.0637146284804644
0.05430052261233728 0.0421482017074959 0.10981251139037
0.008186842105263157 0.008186842105263157 0.1480961538461539
0.06232015745986588 0.0556083102385389 0.04361936860567927
0.06092877074354295 0.05211923822377468 0.1089157532933508
0.02547911547695455 0.03468491599478173 0.1151514308638626
0.06456997047464207 0.02763854560474162 0.01236406410520531
0.07584231706067707 0.02892143976436964 0.009980824003182443
0.0556083102366805 0.06232015745926254 0.04361936860640545
0.07151532815168044 0.02070964580386433 0.05859403712085141
0.0642614969280914 0.04827566032569391 0.01999116947941125
0.0984846718487658 0.02070964580809751 0.05859403712341269
0.03468491600324483 0.02547911549047946 0.1151514308592685
0.03879933873310033 0.02923796432058546 0.1122660074211494
0.117537413816061 0.04026392919346614 0.1082167866450477
0.05246258618590958 0.04026392919288804 0.1082167866489158
0.04026392919234058 0.0524625861837988 0.1082167866485342
0.0886772303430557 0.0389803342120805 0.04892551948053802
0.01974716181317525 0.03535275124284634 0.06611733926257021
0.0703926524105158 0.0260897772724807 0.01432259043813665
0.06420088468591281 0.02268115724206238 0.01833018794752294
0.05430119533131771 0.01847112779269444 0.02317344227459751
0.03535275124288546 0.01974716181096764 0.06611733925529978
0.04431812930290707 0.03044582227467115 0.001539179514191297
0.08914772496055613 0.02727915478802646 0.02364824254590787
0.08069659426747858 0.02037864986534432 0.04450618255490973
0.07190807678503994 0.01950613645683555 0.04649330766536574
0.01798734188625289 0.04435379777892599 0.03771611984049394
0.1131032117446923 0.03482976838925992 0.05249446551124336
0.06343228486038162 0.04207954729676006 0.1071234197980689
0.08810263998043685 0.04578887734986647 0.01625441243042413
0.08189736001664923 0.04578887735248185 0.01625441243147299
0.05689678825607569 0.03482976839271826 0.05249446550589985
0.03482976839062733 0.05689678825565878 0.05249446551288398
0.02235502773214994 0.03176959956848113 0.1144875072967721
0.04932037762310146 0.03655694876164734 0.1066658039846569
0.04435379778072122 0.01798734189126266 0.03771611983209452
0.07144473684210526 0.008186842105263157 0.01667307692307693
0.03655694875102013 0.04932037761024795 0.1066658039853987
0.1252730934497187 0.03874634412194396 0.06804209672415353
0.03007583306962798 0.03007583306952182 0.06091729515592139
0.050683096410589 0.05068309643378927 0.004037330368195059
0.06240789473684209 0.008186842105263157 0.01667307692307693
0.05337105263157894 0.008186842105263157 0.01667307692307693
0.04433421052631578 0.008186842105263157 0.01667307692307693
0.03529736842105263 0.008186842105263157 0.01667307692307693
0.1143375160580424 0.0329210596416633 0.04075100985030601
0.04245532101448646 0.02807326402786599 0.01214584371729422
0.08047323843270672 0.02106493308824242 0.05734735812082014
0.04829516138789031 0.04829516138453527 0.1014270347491926
0.05632929248333417 0.04679670198489899 0.09832649585980661
0.0319394198861261 0.04243427651902842 0.1037321494824586
0.08952676156695261 0.02106493309030243 0.05734735811793391
0.04243427652379202 0.03193941989515741 0.1037321494778484
0.1141258238504665 0.03960416109154791 0.1002693964098109
0.05587417614963917 0.0396041610836064 0.1002693964099548
0.05281246584910782 0.04633089739078841 0.043846955985542
0.04633089738930637 0.05281246584773217 0.04384695598396422
0.02214663312182567 0.03134419539529051 0.110122164563948
0.06885132488734001 0.05409125419933307 0.0389435310373547
0.03134419540026819 0.02214663312707693 0.1101221645510739
0.05705183888282419 0.051047597819923 0.09381679681492787
0.05104759782374144 0.05705183888106825 0.09381679681164273
0.09196115715795529 0.05035178093990812 0.1006975800473211
0.1035663294630292 0.0346746371187298 0.09098179854358403
0.08095211528220338 0.03239569847407703 0.08479496418915615
0.01935985650095378 0.01935985649839718 0.117978748395337
0.1439774699048841 0.02602253009606569 0.1221436958958955
0.03529736842105263 0.008186842105263157 0.02543461538461539
0.04433421052631578 0.008186842105263157 0.02543461538461539
0.08892723021816774 0.03656428516359354 0.08705024297173508
0.08740306163612049 0.05076134420584725 0.1001241520194703
0.1165480945394836 0.01837172490050534 0.05977701715012371
0.05337105263157894 0.008186842105263157 0.02543461538461539
0.06240789473684209 0.008186842105263157 0.02543461538461539
0.0534519054628862 0.01837172490144892 0.05977701715801777
0.01837172489729407 0.05345190546379992 0.05977701716632545
0.08904788471788923 0.032395698461114 0.08479496418717782
0.09684784394725363 0.03110973559941833 0.08585228641341865
0.09637749999498429 0.03382006343540556 0.0470907907272094
0.07362250000453181 0.03382006344163795 0.04709079072374799
0.02443181650395648 0.02443181651995635 0.1216923547343197
0.07376657873739929 0.03481147319501351 0.08837914070965155
0.03839563104976554 0.03337049479325478 0.02799813089752192
0.04935376431115209 0.02578644879849299 0.01469817843030975
0.08894500407808388 0.03164491453853013 0.04692938284833576
0.09325249565304618 0.04987159404090632 0.07196594772382381
0.06107212681092238 0.05460869513699646 0.037405495594606
0.05383500226672128 0.0316925225289461 0.003235449313042974
0.07674750435244455 0.04987159403934781 0.0719659477282563
0.07136158245550163 0.04864623367078573 0.07203512983904349
0.125317915113834 0.02848561980586258 0.03426882795633007
0.03537787868019097 0.04869146485730816 0.04958370204757819
0.04869146485200472 0.03537787868579576 0.04958370204503944
0.05460869513791425 0.06107212681205007 0.03740549559191186
0.1152888936183905 0.02377454875011273 0.03257955083635375
[...]
      <PointData>
        <DataArray type="UInt64" Name="type" format="ascii">
1
1
1
1
1
1
1
1
1
1
1
1
1
1
1
1
1
1
1
1
1
1
1
1
1
1
1
1
1
1
1
1
1
1
1
1
1
1
1
1
1
1
1
1
1
1
1
1
1
1
1
1
1
1
1
1
1
1
1
1
1
1
1
1
1
1
1
1
1
0
1
1
1
1
1
1
1
1
1
1
1
1
1
1
1
1
1
1
1
1
1
1
1
1
1
1
1
1
1
1
1
1
1
1
0
1
1
1
1
0
0
0
0
1
1
1
1
1
1
1
1
1
1
1
1
1
1
1
1
1
1
1
1
1
1
0
0
1
1
1
0
0
1
1
1
1
1
1
1
1
1
1
1
1
1
1
1
1
1
1
1
1
1
1
1
1
1
1
1
1
1
1
1
1
1
1
1
1
1
1
1
1
1
1
1
1
1
1
1
1
1
1
1
1
1
1
1
1
1
1
1
1
1
1
1
1
1
1
1
1
1
1
1
1
1
1
1
1
1
1
1
1
1
1
1
1
1
1
0
1
1
0
1
0
1
1
1
1
1
1
1
1
0
0
1
1
1
1
1
1
1
1
1
1
1
1
1
1
1
0
1
1
1
0
0
0
0
0
1
0
1
0
1
1
1
1
0
0
1
1
1
1
1
1
1
1
1
1
1
1
1
1
1
1
1
1
1
1
1
0
1
1
0
0
1
1
1
0
1
1
1
1
1
1
1
1
1
1
1
0
0
0
0
0
1
1
0
0
1
1
0
0
0
0
0
0
1
1
0
1
1
1
1
1
1
1
1
1
1
1
1
1
1
1
1
1
1
1
1
1
1
1
1
1
1
1
1
1
1
1
1
1
1
1
1
1
1
1
1
1
1
1
1
1
1
1
1
1
1
1
1
0
1
0
1
0
0
0
0
0
0
0
0
1
0
1
1
0
1
1
0
0
1
1
1
0
0
0
1
1
1
1
0
0
1
1
0
0
0
0
0
0
1
1
1
1
0
0
0
0
0
0
1
0
0
0
0
0
1
1
1
1
0
0
0
0
0
1
1
0
0
0
0
0
1
1
0
0
0
0
0
1
1
1
1
1
1
0
1
1
1
1
1
1
1
0
0
0
0
0
0
1
1
0
1
1
1
0
0
0
1
0
0
0
0
0
0
0
0
0
1
1
1
0
0
0
1
1
1
1
1
1
1
0
0
0
0
0
0
0
1
1
1
1
1
1
1
1
1
1
1
0
0
0
0
0
0
1
1
1
1
1
1
1
1
1
1
1
1
1
1
1
1
1
1
1
1
1
1
1
1
1
1
1
0
0
1
1
1
1
1
1
1
1
1
1
1
1
1
1
1
1
1
1
1
1
1
0
1
1
1
1
0
1
1
0
0
0
0
0
1
1
1
1
1
1
0
1
1
1
1
0
1
0
1
0
0
1
1
1
1
1
1
1
0
1
1
1
1
1
1
1
1
1
1
0
0
1
1
1
1
1
1
1
1
1
1
1
1
1
1
1
1
1
1
1
1
0
0
0
0
0
0
0
1
0
0
0
0
0
0
0
1
0
0
0
0
0
0
0
1
0
0
0
0
0
0
0
1
0
0
0
0
0
0
0
1
0
0
0
0
0
0
0
1
0
0
0
0
0
0
0
1
1
1
1
1
1
1
1
1
1
1
1
1
1
1
1
1
1
1
1
1
1
1
1
1
1
1
1
1
1
1
1
1
1
1
1
1
1
1
1
0
1
1
0
1
1
1
1
1
0
1
0
1
0
1
1
0
1
1
1
0
1
0
1
1
0
0
1
1
0
0
0
1
1
1
1
1
1
1
1
1
1
1
1
1
1
0
1
1
1
1
1
1
0
1
1
1
0
1
1
1
1
1
1
1
1
1
0
0
0
1
1
1
1
1
1
1
1
1
0
1
1
1
1
1
1
1
1
1
1
1
1
1
0
1
1
1
1
1
0
0
1
0
1
1
0
0
0
0
0
0
0
1
0
1
0
0
0
0
0
0
1
1
1
0
0
0
0
0
0
0
1
0
0
0
0
0
0
0
1
0
0
0
0
0
0
0
0
0
0
0
0
0
0
0
1
1
1
1
1
1
1
0
0
1
1
0
0
0
0
0
0
1
1
0
0
0
1
1
1
1
1
1
1
1
1
0
1
0
0
1
1
1
1
1
1
1
0
1
1
0
1
1
1
1
1
1
1
0
1
0
1
1
1
1
1
1
1
1
1
1
1
1
1
1
1
1
1
1
1
1
0
0
0
0
0
0
0
0
0
0
0
0
0
0
1
1
1
1
1
1
1
1
1
1
1
1
1
1
1
1
1
1
1
0
0
0
0
0
0
0
0
0
0
0
0
0
0
0
0
0
0
0
0
0
1
1
1
1
1
1
1
1
1
1
1
1
1
1
1
1
1
1
1
1
1
1
1
1
0
0
0
0
0
0
0
0
0
0
0
0
0
0
0
0
0
0
1
1
1
1
1
1
0
0
1
0
0
1
1
1
1
1
0
0
0
0
0
0
0
0
0
0
0
0
1
1
1
1
1
1
1
1
1
1
0
0
0
0
0
0
0
0
0
0
0
0
0
0
0
0
0
0
0
0
0
0
0
0
0
0
0
1
0
0
0
1
1
1
1
1
1
1
1
1
1
1
1
1
1
1
1
1
1
1
1
1
1
1
1
1
1
1
1
1
1
1
1
1
1
1
1
1
0
1
1
1
1
1
1
0
0
0
0
0
0
0
0
0
0
0
1
1
1
1
1
1
1
1
1
1
1
1
1
1
1
1
1
1
1
1
1
1
1
1
1
1
1
1
1
1
1
1
1
1
1
1
1
1
1
1
1
1
0
0
1
1
1
1
1
1
1
1
1
1
1
1
1
1
1
1
1
1
1
1
1
1
0
0
1
1
1
1
1
1
0
0
0
1
0
0
0
1
1
0
1
1
0
0
0
0
0
0
0
1
1
1
1
1
1
1
1
1
1
1
1
1
1
1
1
1
1
1
1
1
1
1
1
1
1
1
1
1
1
0
0
1
0
0
1
1
0
1
1
1
1
0
1
1
1
1
1
1
1
1
1
1
1
1
1
1
1
1
1
1
1
1
1
1
1
1
1
1
1
1
1
1
1
1
1
1
1
1
1
1
1
1
1
1
1
1
1
1
1
1
1
1
1
1
1
1
0
0
1
1
1
1
1
1
1
1
1
0
0
0
0
0
0
0
1
1
1
1
1
1
1
1
1
1
1
1
1
1
1
1
1
1
1
1
1
1
1
1
0
0
0
1
1
1
1
1
1
1
1
1
1
1
1
1
1
1
1
1
1
1
1
1
1
1
1
1
1
1
1
1
1
1
1
1
1
1
1
1
1
1
1
1
1
1
1
1
1
1
1
1
1
1
1
1
1
1
1
1
1
1
1
1
1
1
1
1
1
1
1
1
1
1
1
1
1
1
1
1
1
1
1
1
1
1
1
1
1
1
1
1
1
1
1
1
1
1
1
0
0
0
0
0
0
0
0
0
0
0
0
1
1
1
1
1
1
1
1
1
1
1
1
1
1
1
1
1
1
1
1
1
1
1
1
1
1
1
1
1
1
1
1
1
1
1
1
1
1
1
1
1
1
1
1
1
1
1
1
1
1
1
1
1
1
1
1
1
1
0
0
1
1
1
0
0
1
1
0
0
0
0
0
0
0
0
0
0
0
0
0
0
0
1
1
1
1
1
1
1
1
1
0
0
0
0
0
0
0
0
0
1
1
1
1
1
0
0
0
1
1
1
1
1
1
1
1
1
1
1
1
1
1
1
1
1
1
1
1
1
1
1
1
1
0
0
0
0
0
1
1
1
1
1
1
1
1
1
1
1
1
1
1
1
1
1
1
1
1
1
1
1
1
1
1
1
1
1
1
1
1
1
1
1
1
1
1
1
1
1
1
1
1
1
1
1
1
1
1
1
1
1
1
1
1
1
1
1
1
1
1
1
1
1
1
1
1
1
1
1
1
1
1
1
1
1
1
1
1
1
1
1
1
1
1
1
1
1
1
1
1
1
1
1
1
1
1
1
1
1
1
1
1
1
1
1
1
1
1
1
1
1
1
1
1
1
1
1
1
1
1
1
1
1
1
1
1
1
1
1
1
1
1
1
1
1
1
1
1
1
1
1
1
1
1
1
1
1
1
1
1
1
1
1
1
1
1
1
1
1
1
1
1
1
1
1
1
1
1
1
1
1
1
1
1
1
1
1
1
1
1
1
1
0
0
0
1
1
0
0
0
0
1
1
0
0
0
0
0
1
0
0
0
0
0
0
0
0
0
0
0
0
0
0
0
0
0
0
0
0
0
0
0
0
0
0
0
0
1
0
0
1
0
0
0
1
0
0
0
0
0
0
0
0
0
0
0
0
0
0
0
0
0
0
0
0
0
0
0
0
1
0
0
0
0
0
0
0
1
0
0
1
1
0
0
0
0
0
0
0
0
0
0
0
0
1
0
0
0
1
0
0
0
0
0
0
0
0
0
0
0
0
0
0
0
0
0
0
0
0
0
1
1
1
0
0
0
0
0
0
0
0
0
0
0
0
0
0
0
0
0
0
0
0
0
0
0
0
0
0
0
0
0
0
1
0
0
0
0
0
0
0
0
0
0
0
0
0
0
0
0
0
0
0
0
0
0
0
0
0
0
0
0
1
0
0
0
0
0
0
0
0
0
0
0
1
0
0
0
0
0
0
0
0
0
0
0
0
0
0
0
0
0
0
0
0
0
0
0
0
0
0
0
0
0
0
0
0
0
0
0
0
0
0
0
0
0
0
0
0
1
1
1
1
0
0
1
0
1
0
1
1
1
0
0
1
0
0
0
0
0
0
0
0
1
1
1
1
1
1
1
1
        </DataArray>
        <DataArray type="Float64" Name="density" format="ascii">
1001.494345885761
997.2268004012233
1003.312322432149
999.7302990533052
1003.31232237999
1003.312322431743
993.3820934711473
999.1680431107886
999.6026508417838
998.0665462395571
997.8279916545113
1008.658833776344
1008.658833803126
998.066546305988
999.4901639843706
999.2944226608149
988.7064996548735
988.7064996364032
999.4901639714977
1000.175447572118
1000.863823257851
992.7535616955564
1004.606725119775
994.5459015130432
995.2665595956607
1009.55255075593
1000.170564617015
1001.85099150726
999.9996789461336
999.2944226127667
994.0714569904042
998.5350718063563
997.8641860829541
992.8848726207714
1004.199387554579
981.5982483616658
1001.850991465149
1000.73972266967
993.6139394421223
1004.199387610215
1000.739722680393
969.869802483703
1005.902803181951
997.7787712379933
1002.608991061632
1000.490249360394
1002.608991094762
993.4075183349045
999.653942312289
1002.608991101466
999.1799696387187
998.323324598657
999.2829840017023
990.6116328195918
1000.819460343667
999.179969670784
999.1799696559632
997.6641554849251
997.6641555243048
1005.902803182356
1002.652438394275
994.533306516343
999.5001755951023
1001.257933320485
1001.257933271792
999.6073633811444
999.6073633862979
1001.090497761562
1000.100905028973
1000
997.8775330094868
998.9827895502701
1000.282700492049
1002.157574463391
995.9387084139481
997.8775330621306
999.3099021347073
1008.99250430818
999.3099021018547
1000.282700494295
1000.33902161649
1000.580514820111
1000.580514816867
1000.580514783391
1001.780854819641
999.1358217355164
997.1991089161224
1001.486748107754
996.6033250533828
999.1358217174686
1001.802712301832
1024.554737400999
1003.213295280476
1001.446858713587
999.980082717325
998.1986763526007
1001.042042558161
1002.261499477963
1002.26149949149
998.1986763504193
998.198676359773
999.3893614368897
999.6421894977104
999.9800825392899
1000.734529731929
999.6421894796525
1003.11236818218
997.1836110829705
991.613339994336
1000
1000.032677415221
1002.718718679835
1002.518851278882
1002.030724007385
997.1937974725024
998.2208940569232
998.8027907470522
999.6026508652785
1000.477919361392
998.2208940570863
1000.477919379664
1000.32729460045
1000.327294624377
1003.890378680711
1003.8903786679
999.122552972843
1001.571347112184
999.1225529598053
999.4720527328584
999.4720527115238
998.6915471670842
1000.605912478504
999.403669975619
997.5968720527948
998.9738081024065
1000.224945642514
1000.938581191449
1000.781515863696
999.4906434404927
1001.92980454508
1000.166392836798
1000
1001.929804555117
1001.929804533651
999.4036699720275
999.5477331586786
992.9130625997682
992.9130626206461
1000.428467386087
1001.176277777347
999.0603186376866
999.0571616898613
994.2955800233597
998.3332096011954
999.0059160376107
995.2179643197886
998.3332095915824
1000.217504611233
1002.053364265146
1005.026057921263
1005.026057922548
999.0059160524085
1006.041149401903
997.6337499644076
997.6337498998723
1000.499831996759
998.2571309922031
998.3815032284789
998.3291588384316
1000.327294586237
999.0603186037496
998.3815033255771
998.3233246475479
998.3643469711159
1003.424329779108
1004.606725172166
1001.76314550372
999.2829840724463
1003.424329750317
999.7203812871063
999.7203812669494
999.6605789330868
1001.763145519234
998.6744152110443
1006.084410523525
1006.084410601063
996.2693837796918
1000.420827064005
993.4671488887093
1001.415255153291
994.6953731269007
997.5502188191366
997.5502188677311
997.0150453829261
999.1224797110497
1001.415255103431
1002.042983602012
1001.802712250144
999.6421895158001
1013.387880149471
1013.387880330824
1001.914313704011
1003.521048878673
1004.110902956986
1002.079176458824
1000.811383473263
1004.110903014169
992.6913241431187
992.6913241567801
1003.916428518811
999.6539423280875
999.9987467814352
996.8890422492166
996.8890422489089
999.998746796801
998.3030362080455
1002.725112613703
998.3030362180255
1002.725112653549
1002.725112661563
1008.049912949414
1008.049912944458
998.9140404859353
998.9140407421381
999.2468129807007
997.396227131542
997.3962272164187
996.1487407034537
1000.018135257061
1009.55255083367
1001.78085482651
1000
996.1487406348325
1000
1000.874535305496
998.4885062023867
998.4885061469259
998.1806070265554
1005.367179230849
1014.762452442222
1018.877729425967
1001.54311349923
1000
1000
1003.018671412954
1004.199387659535
1013.387880274893
1002.107543929694
1004.118435441457
969.8698023037016
993.40751854035
1002.107543934452
1002.769185193754
999.3342998011849
1007.64897177469
1006.453086094034
997.3137172246303
995.8510595205948
1003.213295342148
1000
1004.725645653292
1002.769185220093
1001.469259472379
1000
1000
1000
1000
1000
1000.428467456792
1000
999.6594169708826
1000
1002.76918519008
1001.805791675418
998.1221199330543
1001.446858747505
1001.340180240265
1003.629507071318
999.9335131421662
999.334299801115
999.7976516031295
1004.1184354837
999.5112662480173
1000.078946029015
1000.078946049257
1000.339021591533
996.0315476313993
1002.538837285796
1001.399146385327
1005.125423781471
1001.399146344818
1003.45748868817
999.5623495089014
1001.523273977725
1009.203460195123
1001.653892232504
1001.653892217836
999.5623495201859
998.2571310070938
1000.041939002267
1003.366709636805
999.8139829814376
1000
1021.096484739421
1001.95494803763
1003.366709633346
997.6576569413238
1003.612207375906
997.6576569497521
998.8359661064634
981.5982483658684
1001.517834065656
1001.517834206403
998.8359661102365
1002.263333574801
991.0715551630377
991.0715550672084
1007.648971748683
1007.648971804548
1000.041939003025
1000.659177291539
1000.687838228844
1002.095957137887
1000.316146094656
997.7807675558427
1001.978959403903
1001.915835515994
1000.722123602688
1003.245653290716
993.9597457472252
1001.133679335528
1002.838459018802
1002.433289753697
1001.928614759077
1001.042307440265
1000.225895143894
997.827991704266
1000.467361872658
1019.777041900963
1006.639412484796
1002.263333553489
988.436617205723
1006.453086168266
1006.453086189433
1018.890691961634
1018.890692028172
997.6653175682978
992.6216353478865
992.6216353373213
1000.998774298705
999.1896296601083
1003.322700112835
1003.322700030857
1002.019434189974
1005.129623570777
1005.129623529443
1005.129623502803
1009.564292812791
1009.564292834272
999.3056668448912
1001.909826463364
1001.909826497709
1002.855914540676
990.5721805080453
986.9589774188047
986.9589773752257
1002.019434224133
1006.478025387864
1006.478025364242
996.5253473880495
996.5253474005308
1005.866973499518
997.0478663114993
999.8139829909834
1000.86373025659
998.8290919164864
993.6111145139261
993.6111144929864
1002.030723979241
1002.030723905806
1004.511049830836
1000.85961639518
990.5999644220282
990.5999644689465
999.0571616438543
998.6744151718617
995.2179642412457
998.6744150832033
1000.863730269711
1001.932117352356
1002.305882997697
1000
1002.305882960842
1000
990.6116327048205
1000
1000
1000.938581234664
1000.166392848052
1000
1000
1000.018135257068
1000
998.329158805964
1000
1002.157574449653
999.7302990750994
1000
1004.583076325286
997.4295997405738
1002.718718685884
1000.032677417914
997.4301006992231
997.4301006195251
1001.543113452898
1000
1000.734529740832
1003.612207335555
995.8510595041555
995.8510595578977
1005.384438594139
1005.384438603679
1000
1000
995.9387084269422
998.1182264554187
1000
1008.609467887874
1013.987023743944
1015.93902610877
1019.77704187455
1021.096484729203
999.8533580599679
997.3137172073328
993.2949363681514
993.2949365912114
1000
1000
1000
1000
1000
1000
1002.534943603053
1000
1000
1000
1000
1000
999.9800826144575
1001.074336019522
1002.426406725757
1002.426406668618
1000
1000
1000
1000
1000
995.8985590735608
1001.243653701373
1001.915835504827
1003.629507048913
1001.34018024319
1000
1000
1002.912699019279
997.6725401339348
1001.042307466905
1001.928614776213
1002.433289754817
1002.838459002293
1001.133679279038
995.8985591437921
1000.391599388381
996.365763527759
996.6033249318649
1001.486748055913
1000.391599320916
1000
998.12211991319
999.8613035118299
999.6594169886735
998.1182264504041
1002.053364297518
1001.805791670041
993.6139395125216
1000
1000
1000.016620333139
1000
1000
1000.129982489549
1006.041149509465
999.5169348812447
1000
1000.630228606067
1001.529852861319
1001.52985283696
1000.412676951055
1000.129982486988
1000
994.5333066759395
1000
1000
1000
1015.939026129073
1013.987023755085
1008.609467859238
1023.351531877329
1000
1000
999.5001755930498
1001.106708844405
997.4261453803272
1000.659177298331
1000.687838230376
1000
996.3657636218263
996.3657635262057
1000.00386773119
999.0307150691069
999.0568111038062
998.8259917314933
1001.932117330468
1001.830926069753
1000.016620330478
1000
1000
1000
1000
1000
1003.571696678712
1001.511105885834
999.6067460375541
1000.859616429653
1001.533262136178
1001.533262152579
998.7180297980766
1001.469259483519
1004.725645645545
1014.762452405321
1001.543113471111
1000
1000
1000
1000
1000
1000
1001.46925950632
1002.053364290596
1006.04114935657
1004.725645660141
999.6594169667495
998.1221199437492
1001.805791695163
1001.07433593116
997.6725400340694
994.9022687602792
999.9050151107962
997.0478663737132
1004.915229556425
999.1079113180998
1001.850991520141
993.3820934460408
999.505305237622
1003.174537787487
1006.157629623257
1001.361746453356
994.4928925441753
998.4226004722191
993.9597456681952
1001.106708798576
991.0715550388181
999.5238257126853
994.0714570149554
1000.804100765414
1001.162951723906
999.5757033693985
1003.245653286145
999.5757034517093
1000.968148364228
997.1991089285615
1001.494346010197
999.0571615457488
992.6216352138181
997.6725400602551
995.217964149867
1004.924641297362
994.9022687112661
995.2665595635139
1001.074335964799
994.5459015340698
1000.152720224087
997.1937971114776
992.8848728476974
1000.574152910616
1004.110902998067
1001.83795638765
1002.690955282305
1001.837956606019
998.98862991134
1001.132869876791
1002.142612142129
1000.381641650246
997.8641860004504
1003.245653052699
1000
1000.109695464857
1000.379082735627
1000.15741006371
1000.082739401109
996.0315477488676
1003.457488750388
1005.125423825953
1001.523274043147
1006.157629544639
1001.132870162474
1000.113504485162
992.3979617587331
1018.877729383921
1003.174537779766
1024.554737407508
1000.297583368671
1004.403734113397
1002.095957081783
1004.40373406677
1000
1000.316146060794
1000.077311453322
1006.672691735218
996.0315475474754
1005.125423785449
1003.457488931749
999.5222930383619
998.9758136885637
1000
998.9758134618849
1002.855914545591
993.2750486626876
993.5720112009933
998.6915472810981
993.2949364010311
997.2268001411866
1000.372506674006
1000.372506698458
1005.026057969549
1004.551973659879
1000
1001.978959434278
1001.729887926848
992.8848733556104
1000.521701178477
1000.521701542795
987.808992162031
987.8089923196214
997.8835770359691
997.8641867300869
981.5982482747642
990.6116327531835
999.8615821069696
998.1806070751778
994.0768082987867
996.2360340461697
999.6572395242889
1002.255189453777
998.829151399148
996.6033250384272
1002.965127801154
1000
1000
1000
1000
1000
1000.109695465198
1000.084744286397
1003.25862104757
1001.340180204575
1003.629507017278
1001.915835476451
1000.722123570888
1000.157410050339
1000.082739399761
1000.066352004266
1003.627620684373
1002.433289737825
1001.928614773747
1001.042307465215
1000.225895131954
1000.113504455154
1000.297583333134
1000.419123971861
1002.373818830745
1000.687838230075
1002.095957187558
1000.316146112569
1000
1000
1000.381641438384
1000.588295297165
998.7992483829094
1000
1000.166392877217
1000.938581211855
1000.224945814685
1000.804100896655
1002.69095524515
1003.195677706835
1000.481073714722
1000
1000.03267743369
1002.718718655276
1002.518851378762
1000.379082626322
1001.162951615077
1001.746937880172
1000.781515857641
1015.939025983316
1013.987023633937
1008.609467973698
1023.351531959685
1004.551973599485
1000
1000.127419568048
994.2955799989487
999.4906434911632
1001.802712292245
999.6572394846594
1002.169184882213
999.0585875063194
1000.442650459595
999.8615820795994
1001.921487376987
999.8533580733437
1002.255189508729
1002.169184862052
1006.905905963747
1000.87453531431
1003.112368220625
1000.467361876362
1000.998774280219
999.0585874390644
1000.152720174555
999.7976515951869
1000.721885661227
999.5720205121507
1006.905905948967
1001.921487375912
1001.176277719551
1002.373818835295
1002.561542194777
999.7976516126403
1000.307823967521
1003.52104889806
993.4671488775023
995.1907675154953
996.3013823917834
1001.248110462078
1001.485964956807
1000.87453534385
999.7302990444617
999.3893614348725
996.2360340278464
1001.248110485888
1000
999.5169349117447
998.8250654602271
1000
999.5112662569229
1002.205515546878
1003.627620695233
1000.751669184018
1002.042983576472
1000
995.1907674937219
1000
1002.561542215054
1000
1000.739722690576
996.4822256386416
1000
998.0025449982448
1000.467361946855
998.7180297825491
1000
1002.042983594691
1000
996.5010007458553
998.5722626448196
1000
1000
999.1140237975387
1000.356142224834
1000
1000
1000
996.236034032518
1003.521048934815
1000.307823956014
1002.373818835678
998.7069845557019
997.6653176010183
998.7069846336672
998.5722626345765
997.6653175405677
997.7705402200437
1001.921487368877
998.1687623081981
999.0496667557894
1002.965127803065
1000
1000.937092326733
1000.325853135313
1004.118706461859
998.8291513812574
998.7992484043073
1003.112368211162
1000
1000.325853075488
999.5586394093481
999.0496667220553
1000
1000.937092334595
1003.258621065279
1002.965127776318
996.4822255662147
998.9738081262625
999.3604050606983
1000.152720198233
999.5112662414467
998.1687623205748
1000
1000
1000
999.5586393582315
999.5053051813405
994.076808228077
1000.287485383814
1000.287485379713
1003.430943979718
1001.090497759785
999.9050150736522
1000.652132070435
1000
1000.232255907895
1000.175447608812
1001.020813623772
998.8658286134687
998.8658285979678
1000.618041622039
999.2158881062493
1000.8412054677
999.8533580433493
999.5068779106383
999.2834282937064
999.2834283048153
998.8291513848601
1000
999.2643374738932
999.2643374563138
999.5053051736018
999.5319857331424
1001.485964931199
1000
1000
1004.061557027873
1000
999.1079113301671
999.945641040739
1000
1000
1000
1000
1000
1000
1000
1000.721885683372
1000
999.522292965245
1000
1000
1000
1000
1000
1000
1000.003867751656
1003.571696706842
994.0768082651859
1001.719156123344
1000
1000
1000
1000
1000
1000
1000.949336508528
1000.070108484915
1000
1000
1000
1000
1000
1000
999.5088457900106
1000
1000
1000
1000
1000
1000
1000
1000
1000
1000
1000
1000
1000
1000
1000
999.5720204881669
1000.949336419308
1000.646040541058
1000.605912479928
999.9050151089457
1001.020813652084
999.1079113043302
1000
1000
1000.215557044686
999.0307150940952
1000
1000
1000
1000
1000
1000
999.5222930011569
1000.952708996322
1000
1000
1000
998.6585620682254
1001.361746449903
1001.36174641949
997.7705401668024
999.5088457387479
1000.00386775475
999.6067460730642
998.4226004592456
1000.215557061483
1000
1002.425019011358
1000
1000
1000.751669179671
999.9228337943221
999.5477331778573
1001.090497758621
999.9228338308667
1004.915229569515
1000.646040540403
1000
999.0307151345356
999.8139829635035
1000
1000.189339391461
1003.57169673794
998.4226004449789
1000.61804161797
999.5319857730954
999.606746048701
1004.915229569829
1000
1000.841205440246
1000
998.7992483529239
1000.32585307193
1000.356142236419
998.5722625675352
998.5722625728571
999.5586393939219
1000.937092323689
1000.937092327428
998.6585620839905
999.5586394048524
1001.248110469145
1001.248110464501
1000.307824011506
1000.307823985777
999.3604050737207