<VTKFile type="PolyData" version="1.0" byte_order="LittleEndian" header_type="UInt64">
  <PolyData>
    <Piece NumberOfPoints="1251" NumberOfVerts="1251">
      <Points>
        <DataArray type="Float64" Name="Points" NumberOfComponents="3" format="ascii">
0.1214533084880043 0.03768431769738657 0.02512318045908275
0.1618131578947369 0.08951842105263157 0.08676538461538462
0.1430144950738423 0.02698550540028932 0.02197075930707518
0.1520932240618536 0.02851590431140971 0.02561219385504797
0.1618131578947369 0.08048157894736842 0.1042884615384616
0.1414840955096365 0.01790677581244315 0.02561219389501376
0.1267116994068309 0.02580305189614593 0.01264476806381252
0.1441969479557412 0.04328830071060088 0.01264476802982124
0.1503195354154167 0.01968046453486673 0.03887702554731056
0.1242266862954456 0.0239794733863866 0.01774096477222756
0.1618131578947369 0.08048157894736842 0.09552692307692309
0.1618131578947369 0.08048157894736842 0.08676538461538462
0.1411392374181193 0.02476201247926832 0.0136884370970493
0.1452379874451054 0.02886076261988508 0.01368843718264942
0.149570724776461 0.02678284553949877 0.01978727296455987
0.1618131578947369 0.07144473684210526 0.1042884615384616
0.1432171544800067 0.02042927514611752 0.01978727291202707
0.1155051000347422 0.0315876837577671 0.01151831704793775
0.1348281331307023 0.03517186681010084 0.05030140605303911
0.1330968419300861 0.03690315803038879 0.04737118346019989
0.1175366932567817 0.07138215440835269 0.01101871323644677
0.1618131578947369 0.03529736842105263 0.1042884615384616
0.1396000916877005 0.03021249044427958 0.005190873492242998
0.1022055303781213 0.06779446957196322 0.01852420060470588
0.1397875096304591 0.03039990825895063 0.005190873541150736
0.1618131578947369 0.02626052631578947 0.04295769230769231
0.1618131578947369 0.01722368421052631 0.04295769230769231
0.1618131578947369 0.008186842105263157 0.04295769230769231
0.1175284360441843 0.05247156391776946 0.02592576547173554
0.1618131578947369 0.03529736842105263 0.03419615384615385
0.1381731760695367 0.09477891036543802 0.006784946463573987
0.1166928825574573 0.04766884968164199 0.0245876530262774
0.1369970068372381 0.0330029932010862 0.05247837210309348
0.1618131578947369 0.02626052631578947 0.03419615384615385
0.1258475111415101 0.04415249538833075 0.03157866915278384
0.1618131578947369 0.07144473684210526 0.09552692307692309
0.144956766207962 0.02504323376354574 0.05173174715635547
0.1318633217656971 0.0381366781548198 0.04459903084485912
0.1618131578947369 0.01722368421052631 0.03419615384615385
0.1618131578947369 0.008186842105263157 0.03419615384615385
0.1618131578947369 0.03529736842105263 0.02543461538461539
0.14024206784223 0.03739348548262418 0.04789363095696453
0.1618131578947369 0.02626052631578947 0.02543461538461539
0.1618131578947369 0.01722368421052631 0.02543461538461539
0.1437394736842105 0.008186842105263157 0.08676538461538462
0.1238214636692551 0.03669612853526932 0.03017246238853761
0.1355025398454041 0.02567165162565225 0.04944007565884878
0.1618131578947369 0.008186842105263157 0.02543461538461539
0.1432730712949664 0.02672692868347331 0.05286149710430365
0.1437394736842105 0.008186842105263157 0.09552692307692309
0.1347026315789474 0.008186842105263157 0.09552692307692309
0.1527763157894737 0.008186842105263157 0.08676538461538462
0.1527763157894737 0.008186842105263157 0.09552692307692309
0.1443283483257575 0.03449746014442966 0.04944007572612148
0.1618131578947369 0.03529736842105263 0.01667307692307693
0.1618131578947369 0.02626052631578947 0.01667307692307693
0.1618131578947369 0.01722368421052631 0.01667307692307693
0.1117299907294653 0.0517655957453341 0.0203434469832891
0.1269279766278406 0.02489401438906766 0.02638039580837956
0.1618131578947369 0.008186842105263157 0.01667307692307693
0.1618131578947369 0.03529736842105263 0.007911538461538463
0.1294294387018646 0.02984905669969473 0.03624975851930078
0.1618131578947369 0.02626052631578947 0.007911538461538463
0.1401509433608719 0.0405705612926124 0.0362497586119755
0.1618131578947369 0.01722368421052631 0.007911538461538463
0.1618131578947369 0.008186842105263157 0.007911538461538463
0.1527763157894737 0.008186842105263157 0.01667307692307693
0.1201479991849362 0.04985200138265496 0.02836780663244503
0.1527763157894737 0.008186842105263157 0.02543461538461539
0.1527763157894737 0.008186842105263157 0.03419615384615385
0.1347026315789474 0.008186842105263157 0.08676538461538462
0.113813957077256 0.0676682564422067 0.01645091726778706
0.1296916092315975 0.09568290355984947 0.02082992583491725
0.1527763157894737 0.008186842105263157 0.04295769230769231
0.1280828909660445 0.09205585563801968 0.01403142828529244
0.1618131578947369 0.07144473684210526 0.08676538461538462
0.1618131578947369 0.02626052631578947 0.08676538461538462
0.1527763157894737 0.008186842105263157 0.05171923076923078
0.1346745059514074 0.09332409963875175 0.01076745166662948
0.1618131578947369 0.08951842105263157 0.1042884615384616
0.1527763157894737 0.008186842105263157 0.06048076923076924
0.1272361769467553 0.05014781494515522 0.02678178235146864
0.1116139125064796 0.06736572335586413 0.004694401119670659
0.1527763157894737 0.008186842105263157 0.0692423076923077
0.1527763157894737 0.008186842105263157 0.07800384615384616
0.1347026315789474 0.008186842105263157 0.03419615384615385
0.1437394736842105 0.008186842105263157 0.03419615384615385
0.1618131578947369 0.008186842105263157 0.09552692307692309
0.1348060698141682 0.04257437084428067 0.03645337819606419
0.1487925421181191 0.02120745786481089 0.01951609933570262
0.1460082370561638 0.02399176295827629 0.01456484149638785
0.1263999281793825 0.03056220998616465 0.02951559681374891
0.09939647044296186 0.09420029681076757 0.001595960574654123
0.1422446650848228 0.02775533492538701 0.007882341981430823
0.1261558362343365 0.09010574066506447 0.02362932844244295
0.144722277118341 0.03624293710734201 0.04603362127544184
0.1347026315789474 0.008186842105263157 0.04295769230769231
0.1437394736842105 0.008186842105263157 0.04295769230769231
0.1416295030682112 0.0283704969072805 0.05346042039695988
0.1006952272224507 0.07455914554495544 0.009323080939136658
0.1347026315789474 0.008186842105263157 0.05171923076923078
0.1437394736842105 0.008186842105263157 0.05171923076923078
0.1347026315789474 0.008186842105263157 0.06048076923076924
0.1618131578947369 0.08951842105263157 0.09552692307692309
0.1071324851358713 0.0513419143832719 0.0164202886884811
0.1437394736842105 0.008186842105263157 0.06048076923076924
0.1347026315789474 0.008186842105263157 0.0692423076923077
0.1437394736842105 0.008186842105263157 0.0692423076923077
0.1347026315789474 0.008186842105263157 0.07800384615384616
0.1437394736842105 0.008186842105263157 0.07800384615384616
0.1477654664136069 0.1267567780082922 0.01874546653041778
0.1347026315789474 0.008186842105263157 0.007911538461538463
0.1200464157576653 0.08795656884604384 0.02408732536979424
0.1437394736842105 0.008186842105263157 0.007911538461538463
0.1200464157185678 0.08204343116018263 0.0240873253967214
0.1123019253964649 0.07975636332913738 0.01971872286910205
0.1527763157894737 0.008186842105263157 0.1042884615384616
0.1347026315789474 0.008186842105263157 0.1042884615384616
0.1618131578947369 0.03529736842105263 0.08676538461538462
0.1270391084169411 0.1270391089332659 0.03564642711541051
0.1326065144637922 0.02975793222119757 0.04789363086529379
0.1186580854956917 0.06286751475126989 0.01642028859469656
0.1333038719834501 0.04617853617018141 0.030172462081842
0.1347026315789474 0.008186842105263157 0.01667307692307693
0.1311103696563058 0.03888962960113575 0.039326470640812
0.1039751076159468 0.08837787397237176 0.002568369891451164
0.1618131578947369 0.01722368421052631 0.09552692307692309
0.1437394736842105 0.008186842105263157 0.01667307692307693
0.1385275909321024 0.03147240900853821 0.05326855562764946
0.1618131578947369 0.06240789473684209 0.1042884615384616
0.1347026315789474 0.008186842105263157 0.02543461538461539
0.1437394736842105 0.008186842105263157 0.02543461538461539
0.1150412859153643 0.03041052848946477 0.008131217781954483
0.1185746059301805 0.07411288282647827 0.02398895437662833
0.1618131578947369 0.05337105263157894 0.1042884615384616
0.1618131578947369 0.04433421052631578 0.1042884615384616
0.1618131578947369 0.06240789473684209 0.09552692307692309
0.1618131578947369 0.05337105263157894 0.09552692307692309
0.1618131578947369 0.04433421052631578 0.09552692307692309
0.1618131578947369 0.06240789473684209 0.08676538461538462
0.1618131578947369 0.05337105263157894 0.08676538461538462
0.1618131578947369 0.04433421052631578 0.08676538461538462
0.1274256289872944 0.03519393045699244 0.0364533780172668
0.1374750183406324 0.04324649152892488 0.004337048461980212
0.1123019254680767 0.09024363655467194 0.01971872282001232
0.1618131578947369 0.02626052631578947 0.09552692307692309
0.126753508748845 0.0325249818152392 0.00433704813812232
0.1107401245385857 0.04814843435420653 0.01208283484963572
0.1039751074981518 0.08162212611150628 0.002568370008768768
0.1073367541483264 0.08125160576253369 0.0108262856582702
0.1395077705506294 0.09029785097521861 0.007750506344565431
0.1401418386356499 0.02985816133084168 0.05360289252889053
0.1241475871418386 0.08182899009049316 0.001521953740168606
0.1618131578947369 0.03529736842105263 0.04295769230769231
0.1618131578947369 0.02626052631578947 0.1042884615384616
0.1618131578947369 0.008186842105263157 0.05171923076923078
0.1437394736842105 0.008186842105263157 0.1042884615384616
0.1618131578947369 0.01722368421052631 0.05171923076923078
0.1618131578947369 0.008186842105263157 0.08676538461538462
0.1618131578947369 0.03529736842105263 0.09552692307692309
0.1618131578947369 0.02626052631578947 0.05171923076923078
0.1073367542764429 0.08874839420916721 0.01082628597762977
0.1618131578947369 0.03529736842105263 0.05171923076923078
0.1303927252463445 0.03960727559440113 0.04119620154697061
[...]
      <PointData>
        <DataArray type="UInt64" Name="type" format="ascii">
1
0
1
1
0
1
1
1
1
1
0
0
1
1
1
0
1
1
1
1
1
0
1
1
1
0
0
0
1
0
1
1
1
0
1
0
1
1
0
0
0
1
0
0
0
1
1
0
1
0
0
0
0
1
0
0
0
1
1
0
0
1
0
1
0
0
0
1
0
0
0
1
1
0
1
0
0
0
1
0
0
1
1
0
0
0
0
0
1
1
1
1
1
1
1
1
0
0
1
1
0
0
0
0
1
0
0
0
0
0
1
0
1
0
1
1
0
0
0
1
1
1
1
0
1
1
0
0
1
0
0
0
1
1
0
0
0
0
0
0
0
0
1
1
1
0
1
1
1
1
1
1
1
0
0
0
0
0
0
0
0
1
0
1
0
1
0
1
0
1
0
0
0
0
0
1
0
0
0
0
0
1
1
0
1
0
1
1
1
0
0
0
0
1
0
0
0
0
0
0
0
0
1
1
1
1
0
1
1
0
0
1
0
0
1
0
1
1
1
1
0
0
1
1
1
0
0
1
1
1
0
1
0
0
0
1
1
1
0
0
0
1
1
0
0
0
0
1
1
1
0
0
0
1
1
1
0
0
0
0
0
1
0
0
0
0
0
1
1
1
1
1
1
1
1
1
1
0
0
0
0
0
1
1
0
0
1
0
0
0
0
0
0
0
0
0
1
1
0
0
0
0
0
0
1
0
0
1
0
0
1
0
0
0
0
1
1
1
1
0
1
1
1
1
0
0
1
1
1
1
1
1
0
0
1
0
0
1
1
0
0
1
1
0
1
0
1
1
1
0
1
1
1
1
0
1
1
1
1
1
1
1
1
1
1
1
0
1
0
0
0
0
0
0
0
0
0
0
0
0
0
0
0
0
0
0
0
0
0
1
1
1
1
1
1
1
1
1
1
1
1
1
1
1
1
1
1
1
1
1
1
1
0
0
0
0
1
0
0
1
0
0
0
1
1
1
1
1
1
1
1
1
1
1
1
1
1
1
1
1
1
1
1
1
1
1
1
1
1
1
0
1
1
1
1
1
1
1
0
0
0
0
0
1
0
0
1
1
1
1
1
0
0
0
0
0
0
0
0
0
0
0
0
0
0
1
1
0
1
1
1
1
1
1
1
1
1
1
0
0
0
0
0
0
0
0
0
0
0
0
0
0
0
0
0
0
0
0
0
0
0
0
0
0
0
0
0
0
0
0
0
0
0
0
0
0
0
0
0
0
0
0
0
0
0
0
0
0
0
0
0
0
0
0
0
0
0
0
0
0
0
0
0
0
0
0
0
0
0
0
0
0
0
0
0
0
0
0
0
0
0
0
0
0
0
0
0
0
0
0
0
0
0
0
0
0
0
0
0
0
0
0
0
0
0
0
0
0
0
0
0
0
0
0
0
0
0
0
0
0
0
0
0
0
0
0
0
0
0
0
0
0
0
0
0
0
0
0
0
0
0
0
0
0
0
0
0
0
0
0
0
0
0
1
1
1
1
1
1
1
1
1
1
1
1
1
1
1
0
0
1
1
1
0
0
0
0
0
0
0
0
0
0
0
0
1
0
0
1
0
0
1
1
1
1
1
1
1
1
1
1
0
0
0
0
0
0
1
1
1
1
1
1
1
1
1
1
1
1
1
1
1
1
1
1
0
0
0
0
0
0
0
0
0
1
1
1
0
1
1
1
0
0
1
1
1
1
1
1
0
0
0
0
0
0
0
0
0
0
0
0
0
0
0
0
0
0
0
0
0
0
0
1
1
1
1
1
1
1
1
1
1
1
1
1
1
1
0
1
1
1
1
1
1
1
0
0
1
1
1
1
1
1
0
1
1
1
1
1
1
1
1
0
1
0
0
0
0
0
0
0
0
0
0
0
1
0
0
0
0
0
0
1
1
1
1
1
1
0
0
0
0
0
0
0
0
0
0
0
0
0
0
0
0
0
0
0
0
0
0
0
0
0
0
0
0
0
0
0
0
0
0
0
0
0
0
0
0
0
0
0
0
0
0
0
0
0
0
0
0
0
0
0
0
0
0
0
0
0
0
0
0
0
0
0
0
0
0
0
1
1
1
1
1
0
1
0
0
1
0
1
1
0
0
1
0
1
1
1
1
1
1
1
1
1
1
1
1
1
1
1
1
1
1
1
1
1
1
1
1
1
1
1
1
1
1
1
1
1
0
0
1
1
1
1
1
1
1
1
0
1
1
1
1
1
1
0
1
1
1
1
1
1
1
1
1
1
0
1
1
1
1
0
1
1
1
1
1
0
1
1
0
1
1
1
0
0
1
1
1
0
0
0
0
0
0
0
0
0
0
0
0
0
1
0
0
0
0
0
0
0
0
0
0
0
0
0
0
0
0
0
0
0
0
0
0
0
0
0
0
0
0
0
0
0
0
0
0
0
0
0
0
0
0
0
0
0
0
0
0
0
0
0
0
0
0
0
0
0
0
0
0
0
0
0
0
0
0
0
0
0
0
0
0
0
0
0
0
0
0
0
0
0
0
0
0
0
0
0
0
0
0
0
0
0
0
0
0
0
0
0
0
0
0
0
0
0
0
0
0
0
0
0
0
0
0
0
0
0
0
0
0
0
0
0
0
0
0
0
0
0
0
0
0
0
0
0
0
0
0
0
0
0
0
0
0
0
0
0
0
0
0
0
0
0
0
0
0
0
0
0
0
0
0
0
0
0
0
0
0
0
0
0
0
0
0
0
0
0
0
0
0
0
0
0
0
0
0
0
0
0
0
0
0
0
0
0
0
0
0
0
0
0
0
0
0
0
0
0
0
0
0
0
0
0
0
0
0
0
0
0
0
0
0
0
0
0
0
0
0
0
        </DataArray>
        <DataArray type="Float64" Name="density" format="ascii">
999.7216917280624
1000
1017.56169327884
998.9810188486682
1000
998.9810180634014
998.6059734917682
998.6059736370713
1002.347461666421
1000.603708139027
1000
1000
995.7012109709777
995.7012117719565
995.5385420056859
1000
995.5385412554382
999.6381715667951
999.4275374037893
999.4477529435305
996.2740866127871
1000
999.8503384770482
1003.035236613786
999.8503385800485
1000
1000
1000
1002.025797089672
1000
1002.169176249262
1000.256294581425
999.685911659441
1000
1001.597215272916
1000
999.4491054956071
999.2078055658737
1000
1000
1003.973425052598
999.9413064952449
1004.74625170041
1000.097851457665
1000
998.2924318318097
1000.92282321076
1000
999.8517818911612
1000
1000
1000
1000
1000.922822987306
1002.146314354056
1000.19009865888
1000
1001.601888404299
997.7134692376375
1000
1017.704380987116
1001.132799345368
1000
1001.132799203123
1000
1000
1000
999.7758129246592
1000.097851238468
1000
1000
1001.124816304203
999.5999307238782
1000
1003.784639203421
1000
1000
1000
1000.114113819297
1000
1000
999.3172069832206
999.3567044189759
1000
1000
1000
1000
1000
999.9323356939378
993.1516381908531
994.4305219050199
1000.444412917638
1001.486285771953
997.392598103085
999.0692253425955
1000.430312345869
1000
1000
999.879767229264
1000.938063290849
1000
1000
1000
1000
999.012876965845
1000
1000
1000
1000
1000
1001.284759736384
1017.704381558206
997.4288178548592
1000
997.4288178232067
999.8711569675347
1000
1000
1000
998.0568595712374
999.9413066267111
999.0128776219817
998.2924326981089
1002.146314916634
1001.479908323556
997.286119865479
1000
1000.190098331163
1000.136318036523
1000
1003.97342475369
1004.746251345141
998.2855982496468
999.293675179504
1000
1000
1000
1000
1000
1000
1000
1000
999.932334989961
995.6981552971911
999.8711568822594
1000
995.6981546496748
997.816304223605
997.286119899975
1000.580312627299
996.5701285519917
999.2567546502939
998.9444028357416
1000
1000
1000
1000
1000
1000
1000
1000
1000.580312416314
1000
998.9275145813416
1000
999.5999304259216
1000
1001.486286031126
1000
995.9342209797468
1000.005080030527
1000
1000
1000
1000
1001.601888315757
1000
1000
1000
1000
1000
998.7713470284358
999.3165546965635
1000
1010.464728219937
1000
996.5701284930774
998.0568605576481
1000.430312605142
1000
1000
1000
1000
999.3427572611942
1000
1000
1000
1000
1000
1000
1000
1000
998.50011410936
999.3172065568909
1000.44441177634
998.4233671640607
1000
999.5253375330495
999.7216905941832
1000
1000
996.1402657587706
1000
1000
1004.313469399481
1000
1003.015888283899
997.7222905540336
996.7592050847413
1000.603707226996
1000
1000
1001.322961479353
1001.322961890018
998.5196881401438
1000
1000
995.508944776521
994.6125934987609
1005.025326833643
1000
998.609281746765
1008.328565273993
1000
1000
997.287986383522
998.6092805372389
1001.070566675993
1000
1000
1000
998.9444021180196
1001.070566531222
1000
1000
1000
1000
1003.01588820745
999.2590236111979
1000.256295077642
1000
1000
1000
999.653553036263
995.9342205784699
999.2590234865663
1000
1000
1000
1000
1000
1001.284759206217
1000
1000
1000
1000
1000
999.6535523462634
1001.284759711239
999.8559947608936
999.8559947323606
997.042703276541
999.0692253738551
997.8259305064259
995.5089447603532
990.4574147836989
999.6606723263953
1000
1000
1000
1000
1008.328565792689
999.6606719469444
1003.976605269919
1000
1000
997.7134704196203
1000
1000
1000
1000
1000
1000
1000
1000
1000
998.3176892975736
998.22191123466
1000
1000
1000
1000
1000
1000
999.779370198205
1000
1000
998.6857888804797
1000
1000
999.6381743296092
1000
1000
1000
1000.005080026577
998.2855987809353
1001.336117866469
1001.640670372166
998.1725271771002
1000
1000.464152622376
1003.284709197783
1002.951316257222
998.1725278043521
1000
1000
998.6857927102338
1000.599402255922
998.3176886731001
998.2219110700997
1001.640669077288
1001.336117977538
1000
1000
994.5494546661515
1000
1000
994.5494541269779
992.7296629656453
1000
1000
1000.464153082098
996.7592041594751
1000
997.1980569012845
1000
997.7134714873081
998.9890956898641
1003.784639412893
1000
997.1980572113057
998.2882876981956
998.2882869684674
1002.169175859763
1000
999.7601476149241
999.7839206020104
999.7839207406062
1000.114113405994
1002.951318199139
1001.94815846083
996.9211711864158
1000.113050579988
1000.113049781024
1010.464728643233
999.8727734887882
1000
997.8163056731311
1000
1000
1000
1000
1000
1000
1000
1000
1000
1000
1000
1000
1000
1000
1000
1000
1000
1000
1000
1000
1000
1001.124818088973
999.2936752322049
999.317206603293
998.2924324424395
999.3567042424467
999.7793701930394
998.9890943888371
996.2740877034025
999.0128762506035
996.7592058232229
999.7216905653522
996.7592053604081
999.7601475684997
1001.948159220535
996.9211715016163
997.1980590976216
999.3172075090998
998.2219110390459
999.4477530990129
998.5001139414043
999.2078056217023
1000.25629503739
1002.951314353903
1000
1000
1008.328565191731
1000
1000.256295620338
1000
1000
999.4275374917636
1000
1000
1000
995.6981546236831
999.6859117331884
998.7713464384431
999.3427572077834
998.2855996605359
997.8259294981165
1000.464148539511
1003.976605888131
1010.464726720736
1001.601889195297
994.549456475473
1002.025797525555
1000.60370770635
999.9323354740604
998.6059739973896
999.6381748534793
997.8163029570584
999.7758125942277
1001.597215371731
994.6125944956634
1001.336118758855
1000.136318033481
998.1725278802362
998.2882882813971
990.4574162697965
998.9890947022998
999.316554817527
1000
998.7713470652068
996.2740875726304
999.7601473828464
999.0128764146866
1001.948157496881
998.6857929653236
998.3176896842366
1000
1000
1000
1000
1000
997.7222905472122
1000
1000
999.8727734437966
1003.284709129586
1000.599402456338
1001.12481638491
997.1980584457908
1000
1000
1000
1000
1000
1000
1000.005080015712
1000
1000
1000
1000
1000
1000
1000
998.9890959420976
997.2879866792305
1000
992.729662274919
1001.640670297736
1003.284709928014
1000.938063653097
996.9211712042921
999.2936759386446
1001.601888978171
997.816305151898
999.3567041415544
1003.035236997379
1000
1000
1000
1000
1000
1000
1000
1000
1000
1000
1000
1000
1000
1000
1000
1000
1000
1000
1000
1000
1000
1000
1000
1000
1000
1000
1000
1000
1000
1000
1000
1000
1000
1000
1000
1000
1000
1000
1000
1000
1000
1000
1000
1000
1000
1000
1000
1000
1000
1000
1000
1000
1000
1000
1000
1000
1000
1000
1000
1000
1000
1000
1000
1000
1000
1000
1000
1000
1000
1000
1000
1000
1000
1000
1000
1000
1000
1000
1000
1000
1000
1000
1000
1000
1000
1000
1000
1000
1000
1000
1000
1000
1000
1000
1000
1000
1000
1000
1000
1000
1000
1000
1000
1000
1000
1000
1000
1000
1000
1000
1000
1000
1000
1000
1000
1000
1000
1000
1000
1000
1000
1000
1000
1000
1000
1000
1000
1000
1000
1000
1000
1000
1000
1000
1000
1000
1000
1000
1000
1000
1000
1000
1000
1000
1000
1000
1000
1000
1000
1000
1000
1000
1000
1000
1000
1000.444412834996
1001.486286440191
1001.486286311116
999.2936751279949
1003.784639169018
998.9444042045905
1001.124817236249
995.9342197996268
996.5701290878554
1003.015889097014
1001.948159957364
996.2740873909721
996.9211715061888
999.8727740677846
999.5999312260645
1000
1000
998.7713465707611
1003.284710429755
1000.11411339325
1000
1000
1000
1000
1000
1000
1000
1000
1000
1000
1000
1000
1001.486286056358
1000
1000
999.8711566015429
1000
1000
1000.580312267356
997.2861195288966
1002.169176302279
997.2879863228841
1000.599402797212
999.3567044916306
999.0692255377099
997.7222897892443
997.4288170568003
999.7601479411311
1000
1000
1000
1000
1000
1000
999.6535512789135
998.7713466485972
1001.124817597013
1003.035236920663
999.2936750927114
998.9890944871573
999.3567043397173
996.2740878680853
999.5999310010865
997.4288167998309
996.9211716735899
999.7601478077023
1000.938063481937
1000.938063567917
999.0692252359346
995.9342198636508
999.6535506999928
1003.015888962634
1000
1000
1000
1000
1000
1000
1000
1000
1000
996.5701289047522
1003.784638697206
998.9444038675429
1000
1003.284710117336
1000.114113552211
1000.599403053415
1000
1000
1001.948159224082
999.8727742089607
997.2861195949172
1001.486286590238
1000.580312604837
999.8711567118071
1000
1000
1000
1000
1000
1000
1000
1000
1000
1000
1000
1000
1000
1000
1000
1000
1000
1000
1000
1000
1000
1000
1000
992.7296595495815
1000.938063558139
1000.938064025879
999.6535509121572
1000.114113113438
998.29243230077
1000.922823009745
1000.92282311174
998.9444036267254
999.8797672765028
996.5701291900535
998.7713470297393
1000.430312573856
999.7216926314466
1000.444413390802
1000
1002.169175522144
1000.430312580427
995.934220040545
1001.132799636491
1001.132799570542
998.685786483804
998.3176897095649
1000
1000
992.7296565385592
1003.01588922388
1001.1248163112
997.2879858511079
1001.640671823691
998.9890955876012
1000
1005.025327554094
998.2219117723657
999.8559944505831
999.8559947135763
1001.284760360471
997.0427034460134
1001.322962325887
998.519687878069
1000
1001.32296159696
1000
1000
1000
1000
1000
1000
1000
1000
1000
1000
1000
999.8727734314253
1000
1000.005080030464
1000
1000
1000
1000
1000.599402743871
997.7222883537692
999.5999309117424
996.9211719345074
1000.938063618322
999.2567545673108
1000
1000
1000
1000
1000
1000
1000
1000
1000
1000
1000
1000
1000
1000
1000
1000
1000
1000
1000
1000
1000
1000
1000
1000
1000
1002.146314261077
1000
1000
1000
1000
1000
1000.097850754117
1004.746251021931
1003.973424994087
1000
1000
1000.190098382538
1002.146314349317
1000
1000
1017.704381191143
1000.19009734547
1000
1000
1003.973424474395
1004.746250312022
1000.097850659147
1000
1000
1000
1000
1000
1000
1000
1000
1000
1000
1000
1000
1000
1000
1000
1000
1000
1000
1000
1000
1000
1000
1000
1000
993.151638424702
994.43052276088
997.3925985478261
999.8503386669259
999.8503386652595
1000
999.9413066837475
1000
1000
1000.580312478811
1000
999.9413066849747
1003.784638476487
1000
1000
997.7222901675931
1000
997.2861194570183
999.2936757317101
1000.580312360021
999.8711567601778
997.4288167920087
997.4288177816667
996.1402662317695
999.0692250350251
999.5253374916884
999.5999309432191
995.7012129384369
995.7012118482957
998.4233671425229
1001.486285914785
1004.31346932744
995.5385409820843
995.5385433574672
995.6981538551206
998.6059737208762
1002.347461498934
999.7601479909632
998.2855962652422
1001.948158571803
998.9810179844195
998.9810200055622
999.3567042136478
997.286119702869
1001.486285956082
1017.561688832602
999.8711568243654
1000.60370897071
999.851782052296
999.6381700218332
1000
1000
1003.284709753326
999.2590230123629
999.2590234405181
1001.070567501909
999.7839197818703
1001.070567089016
999.7839208723451
998.6092821327139
1000
996.2740867559596
1000.113049684275
1001.336118949949
998.6092803350141
1000.113050136125
995.5089448543005
1000
998.1725270718179
995.5089445743291
999.8727745876539
999.6606732057595
994.5494570149887
999.6606721687263
999.4491058344361
1010.464724216325
1000.464151738693
997.7134696370555
1000
1002.95131781012
998.2882894093364
1003.784639555636
999.6535526910939
1000
998.9444034827628
1000.114113692976
996.5701287153339
999.0692258869948
995.9342205111942
1000
1002.169176450281
1003.01588863083
1000
997.2879872530957
999.9323350147798
1000.599402695678
1000
1000
1003.035236651078
1000.938063543043
1001.479907809309
1000
1000
1000
1000
1000
1000
1000
1000
1000
1000
1000
1000
1000
998.9275141546268
1000
1000
1000
1000
1000
1000
1000
1000
1000
1000
1000
1000
1000
1000
1000
1000
1000
1000
1000
1000
1042.502209583128
1037.837611637207
1035.743896739994
1028.537426041274
1000
1032.030865033502
1017.819509696838
1000
1000
1000
1000
1000
1000
1000
1000
1000
1000
1000
1000
1000
1000
1000
1000
1000
1000.224492741561
1000
1001.250415013803
1000
1000
1000
1000
1000
1000
1000.168705065909
1000
1037.837611533299
1000
1000
1042.502209584163
1000
1000.000000603784
1000
1000
1000
1000.16870506622
1000
1000
1000
1000.134883852112
1000
1000
1000
1000
1000.051999332969
1000
1000
1000
1000
1000
1000
1000
1042.502209630879
1017.819509690604
1000
1000.168705066365
1000
1000
1000
1000
1000
1000
1000
1000
1000.134883852139
1000
1000
1000
1000
1000
1000.170420880325
1000
1000
1000
1000
1000
1000
1000
1000
1000
1000.170420880552
1000.051999332943
1000.114227034475
1000.109934695384
1035.74389672774
1000.109934695633
1000
1000
1000
1000
1000
1000
1000
1000
1000
1000
1000
1000
1000
1000
1000
1000
1000
1000
1000
1000
1000
1000
1000
1000
1000.224492742794
1000.114227034607
1000
1000
1000
1000
1046.387223022906
1000
1046.387223137881
1000
1046.387222844964
1000
1032.030865029344
1000
1000
1000
1000
1000
1000
1000
1000
1000
1000
1000.224492721555
1000
1000
1046.387222828992
1000
1000.224492723629
1000
1028.537426062493
1000
1000
1001.250415014005
1000.000000603784
1000
1000
1000
1000
1000
1000
1000
1000
1000
1000
1000
1000
1000
1028.53742606914
1000
1000
1000
1000
1000
1000
1000
1000
1000
1000
1000
1000
1000
1000
1000.000000603784
1000
1000
1000
1000
1000
1001.250415020911
1000
1000
1035.743896751846
1000.109934696343
1000
1000
1000
1032.030865083093
1017.819509727859
1037.837611682116
1000
1000
1000.051999332948
1000
1000
1000.114227035067
1000.170420880295
1000.134883851999
        </DataArray>
        <DataArray type="Float64" Name="density_prev" format="ascii">
999.7770564557967
1000
1017.492752382653
998.8971244605692
1000
998.8971236754209
998.9637725783834
998.9637726416879
1002.262709643618
1000.681145084171
1000
1000
995.750392056408
995.7503928537591
995.374033458873
1000
995.3740327450945
999.5074890804484
999.429641945798
999.4052773930979
996.154855928793
1000
999.9171987493748
1003.116662392391
999.9171988510546
1000
1000
1000
1001.789286608479
1000
1001.79983927205
999.9673167357663
999.716223800743
1000
1001.831460479731
1000
999.4434977799167
999.1378592661689
1000
1000
1003.99275970115
999.9421067152023
1004.726201905923
1000.119984983199
1000
998.460298956807
1000.922164844116
1000
999.9184591039882
1000
1000
1000
1000
1000.922164616667
1002.142469444069
1000.198960654642
1000
1001.450057829274
997.8543625692982
1000
1017.697288198896
1001.1414411324
1000
1001.141441046229
1000
1000
1000
999.6647122927377
1000.119984754366
1000
1000
1001.255575091284
999.5591637474577
1000
1003.640164210655
1000
1000
1000
999.8035107913556
1000
1000
999.2876277719569
999.1021718367041
1000
1000
1000
1000
1000
999.9653691416022
992.9176538507312
994.1910029925933
1000.312888398335
1001.159094803502
997.3165082637573
998.9829871595139
1000.390100345229
1000
1000
1000.009598468788
1001.148872091278
1000
1000
1000
1000
998.9647461231444
1000
1000
1000
1000
1000
1001.247941144362
1017.697288786542
997.2576531615346
1000
997.2576531535258
999.9537367409779
1000
1000
1000
998.0248762215945
999.9421068502443
998.9647467785343
998.460299831884
1002.142470029537
1001.574675122372
997.1044728425815
1000
1000.198960330016
1000.157415420299
1000
1003.99275940557
1004.726201532958
998.0509588395081
999.214717685998
1000
1000
1000
1000
1000
1000
1000
1000
999.9653684233302
995.7212078110894
999.9537366179173
1000
995.7212071032715
998.0990638588331
997.1044729150632
1000.789701905169
996.8025406373655
999.2539801101394
999.0165363822969
1000
1000
1000
1000
1000
1000
1000
1000
1000.789701674369
1000
999.0199898638897
1000
999.5591634589888
1000
1001.159095163143
1000
995.9298670430084
1000.004427211206
1000
1000
1000
1000
1001.450057853593
1000
1000
1000
1000
1000
998.941865218915
999.4093777975919
1000
1010.730061661932
1000
996.802540533162
998.024877181674
1000.390100605834
1000
1000
1000
1000
999.4101609911933
1000
1000
1000
1000
1000
1000
1000
1000
998.1497053333987
999.2876273713277
1000.312887297626
998.355709179571
1000
999.3748506187906
999.7770553529307
1000
1000
996.0243464686429
1000
1000
1004.624788088656
1000
1003.431629546585
996.7239744242846
996.6390690445
1000.681144089688
1000
1000
1001.201385744046
1001.201386176389
998.6434601336185
1000
1000
995.4271966240387
994.7288337607022
1005.133183998186
1000
998.707346907201
1008.318628516257
1000
1000
997.4682472566888
998.7073457296469
1001.012281772198
1000
1000
1000
999.0165356737879
1001.012281693448
1000
1000
1000
1000
1003.431629500008
999.2797000056516
999.9673172555608
1000
1000
1000
999.6333470288068
995.9298666870126
999.2796998655857
1000
1000
1000
1000
1000
1001.247940634448
1000
1000
1000
1000
1000
999.6333463311391
1001.24794120193
999.7884350894078
999.7884350267898
997.0522536347613
998.9829872137009
997.6684286560259
995.4271966542017
990.8628415808921
999.4763657957803
1000
1000
1000
1000
1008.318629023892
999.4763654236353
1004.082133477289
1000
1000
997.8543636893539
1000
1000
1000
1000
1000
1000
1000
1000
1000
998.5064041040624
998.5282393386692
1000
1000
1000
1000
1000
1000
999.7612697389891
1000
1000
998.6636407844056
1000
1000
999.5074919306528
1000
1000
1000
1000.004427207176
998.0509594275419
1001.72981248508
1001.373527643479
998.0624894253261
1000
1000.06433589898
1003.117394504652
1003.139325337661
998.0624900518043
1000
1000
998.6636448094399
1000.398877842087
998.5064034347777
998.5282392384324
1001.373526331956
1001.72981247256
1000
1000
995.0589094280277
1000
1000
995.0589091734344
993.0248727137011
1000
1000
1000.064336376177
996.6390682434676
1000
997.3877588142017
1000
997.8543646884191
999.1228053733295
1003.640164423348
1000
997.3877590806896
998.2979433700174
998.2979426781383
1001.799838869405
1000
999.8413531788733
999.8202672746561
999.8202673929172
999.803510344654
1003.139327929421
1001.901049194369
996.9206271797478
999.9868841988608