<VTKFile type="PolyData" version="1.0" byte_order="LittleEndian" header_type="UInt64">
  <PolyData>
    <Piece NumberOfPoints="1776" NumberOfVerts="1776">
      <Points>
        <DataArray type="Float64" Name="Points" NumberOfComponents="3" format="ascii">
0.03999004086955892 0.03325347425592279 0.001747884896393174
0.1079833037222153 0.04005692710760914 0.02702386298537436
0.0486312333232914 0.03692288254837834 0.06990919524508474
0.06201669628716713 0.04005692720613013 0.02702386294530622
0.1254899807375102 0.03390334790371388 0.0716965037929584
0.08951842105263157 0.008186842105263157 0.1218115384615385
0.1366763378363731 0.04308105112602099 0.03297783168989319
0.1398943912552869 0.03010560876333583 0.03993334277770327
0.1366972915589817 0.04144267416835458 0.0292074181483482
0.1285573257847969 0.03330270843772957 0.02920741812224411
0.1516273483035983 0.02774285132910624 0.04976197827710025
0.02847782221005689 0.01717076005032029 0.02714804138013398
0.1422571486666491 0.01837265169642561 0.0497619782735449
0.1269189488449086 0.03332366216626072 0.03297783164849825
0.1393080776019225 0.03069192243066356 0.03498186996644037
0.1337471006852825 0.01790838562714454 0.04085195218069541
0.1520916143712429 0.0362528993128113 0.04085195218350225
0.07064469931540819 0.03099326452779614 0.007352537905815945
0.151865661630798 0.01813433837717191 0.05907677468374355
0.1339032206942423 0.01977656632965226 0.04600467456674823
0.136965188821008 0.03973222202144492 0.01885278267955798
0.01717076005738366 0.02847782225995922 0.02714804138173372
0.02089654562630785 0.02089654572633792 0.02584355912547712
0.1302677779794539 0.03303481122403998 0.01885278270287426
0.1381537880465654 0.06391254931061169 0.007049180072075117
0.142396107985943 0.01817412715253649 0.03658219449321223
0.1518258728438951 0.02760389202190617 0.03658219449681949
0.1079150786290499 0.02214732575868017 0.03218018383358164
0.152159740158506 0.02740870392530156 0.04303829070311278
0.06208492135200838 0.02214732578123298 0.03218018381653258
0.1425912960732026 0.01784025984446715 0.04303829070359556
0.1472670025916175 0.02273299743322319 0.01843515554264797
0.1250151883262667 0.02049383298751083 0.04025249805889274
0.07261086307854843 0.02817355060431481 0.01186059829832049
0.08086168510798024 0.03111155771462799 0.007408977231078009
0.04498481169409715 0.02049383298097317 0.0402524980761854
0.1243107213827682 0.05819430970558724 0.06964194900008726
0.04308105112780604 0.0333236621623813 0.0329778316930294
0.1401584396234951 0.03877909371485967 0.007379242956313308
0.1415221777544695 0.01717076001149236 0.02714804135370193
0.1098219511173529 0.06017804887901187 0.07647293891843403
0.09577954621984812 0.04759803477195088 0.01388675269072902
0.1528292399731084 0.02847782225852503 0.02714804134094675
0.1253583366485738 0.03492450379309314 0.03532868331201479
0.1319435428446439 0.02049534772076333 0.01959975213369431
0.1395123783196141 0.03048762109562238 0.00617790590273278
0.1443798776169903 0.02562012223415247 0.01459529777784666
0.1618131578947369 0.02626052631578947 0.04295769230769231
0.1618131578947369 0.01722368421052631 0.04295769230769231
0.1618131578947369 0.008186842105263157 0.04295769230769231
0.07250768075083187 0.02173524269333402 0.02730848591970614
0.1408979978411334 0.0291020027139072 0.008825805051667985
0.09749231925502913 0.02173524268224649 0.02730848590695617
0.1618131578947369 0.03529736842105263 0.03419615384615385
0.1049947449577219 0.04796422481233806 0.07578004814859499
0.1224148139263429 0.03992062082311306 0.07947686861251445
0.04758518605616069 0.03992062081958687 0.07947686862284589
0.1618131578947369 0.02626052631578947 0.03419615384615385
0.08919597777864723 0.0466136524841678 0.01049297703668645
0.01977656634988275 0.03609677929642458 0.04600467456412412
0.05546977732616798 0.03261811192382212 0.00362905879639931
0.03609677930897882 0.01977656633919916 0.04600467456007966
0.08071380130619517 0.02529381544993659 0.01433243092953044
0.07202138314059937 0.02234918677950785 0.01846340858903211
0.1618131578947369 0.01722368421052631 0.03419615384615385
0.1099213829270146 0.04198302814053433 0.02322208686057664
0.1618131578947369 0.008186842105263157 0.03419615384615385
0.1618131578947369 0.03529736842105263 0.02543461538461539
0.06007861708171374 0.04198302818688896 0.02322208678782425
0.1618131578947369 0.02626052631578947 0.02543461538461539
0.1618131578947369 0.01722368421052631 0.02543461538461539
0.05253365208311051 0.04032922324582695 0.07050918329479945
0.04910541656480637 0.02475466892080769 0.01704363776691576
0.07144473684210526 0.008186842105263157 0.01667307692307693
0.1618131578947369 0.008186842105263157 0.02543461538461539
0.1213378090958365 0.0420117297702255 0.0362298382650508
0.03010560874143611 0.03010560875790571 0.03993334275407549
0.06240789473684209 0.008186842105263157 0.01667307692307693
0.05337105263157894 0.008186842105263157 0.01667307692307693
0.04433421052631578 0.008186842105263157 0.01667307692307693
0.03529736842105263 0.008186842105263157 0.01667307692307693
0.1118794805053281 0.04856979531439757 0.006826367908050831
0.08087677808593194 0.02184449588658434 0.02631164809475712
0.1618131578947369 0.03529736842105263 0.01667307692307693
0.1618131578947369 0.02626052631578947 0.01667307692307693
0.1618131578947369 0.01722368421052631 0.01667307692307693
0.0891232219241864 0.0218444958781525 0.02631164807947405
0.04451001928025584 0.03390334791624332 0.07169650377586395
0.104459819408402 0.06554018058763317 0.05797338086015452
0.1312376637177939 0.02872948770343531 0.06651488399139012
0.1618131578947369 0.008186842105263157 0.01667307692307693
0.1618131578947369 0.03529736842105263 0.007911538461538463
0.1373182260114157 0.02344817065190435 0.07923517565821796
0.1618131578947369 0.02626052631578947 0.007911538461538463
0.1465518293563476 0.03268177398795589 0.07923517565525728
0.1618131578947369 0.01722368421052631 0.007911538461538463
0.1618131578947369 0.008186842105263157 0.007911538461538463
0.1527763157894737 0.008186842105263157 0.01667307692307693
0.09975284961401834 0.03805490683157447 0.05839307803084324
0.08183184905668703 0.03454316761758371 0.05411366539168537
0.1527763157894737 0.008186842105263157 0.02543461538461539
0.1527763157894737 0.008186842105263157 0.03419615384615385
0.03529736842105263 0.008186842105263157 0.02543461538461539
0.04433421052631578 0.008186842105263157 0.02543461538461539
0.08786671644493727 0.04200607822575134 0.05593522437290837
0.1527763157894737 0.008186842105263157 0.04295769230769231
0.115911450633419 0.01974296489549177 0.03478070189830749
0.05337105263157894 0.008186842105263157 0.02543461538461539
0.06240789473684209 0.008186842105263157 0.02543461538461539
0.05408854937017215 0.01974296488608339 0.03478070191097373
0.1527763157894737 0.008186842105263157 0.05171923076923078
0.08816815094179936 0.03454316759231277 0.05411366537753722
0.09463537560909076 0.03350772264070176 0.05462233498321153
0.09752776336624477 0.0412487767411264 0.007851318991292239
0.07247223661788846 0.04124877677566061 0.007851318991830437
0.1527763157894737 0.008186842105263157 0.06048076923076924
0.07659135112668877 0.03862430730611232 0.05677461041990996
0.08933768323780474 0.02619020656862625 0.01546238143166485
0.1206479466245015 0.06069337944606828 0.07050211370356833
0.1527763157894737 0.008186842105263157 0.0692423076923077
0.1527763157894737 0.008186842105263157 0.07800384615384616
0.1347026315789474 0.008186842105263157 0.03419615384615385
0.1268770450037517 0.02805316864993962 0.01317973312033004
0.1437394736842105 0.008186842105263157 0.03419615384615385
0.04793904380247316 0.04059747884240534 0.02183866426808833
0.1445274048160996 0.02866844947558429 0.01115917065249754
0.1151715662275686 0.0279527481014428 0.01636448482537404
0.04144267419768762 0.03330270841486299 0.02920741813157666
0.03330270842198096 0.04144267415393882 0.0292074181603503
0.1515762942348965 0.01842370576804899 0.04203401759489761
0.1385415263879157 0.03275321445937484 0.001418042258865587
0.09526560135933514 0.03077712495782749 0.05156212105270656
0.1517853858672403 0.01821461414134704 0.0336498117963263
0.1295601864955959 0.03091216518026541 0.07301355519721429
0.07473439864972992 0.03077712495265801 0.05156212104739898
0.09738913693824687 0.02817355061656277 0.01186059828946421
0.1514831719393174 0.01851682806150957 0.02332822761001521
0.08844702429844711 0.03033741304083661 0.049425907657612
0.08913831489177761 0.03111155771290442 0.007408977235762475
0.1457776763095168 0.02422232361804442 0.01316208698928422
0.149504652268616 0.03805645717276104 0.01959975211799017
0.08155297570589072 0.03033741302778377 0.04942590764783885
0.1347026315789474 0.008186842105263157 0.04295769230769231
0.1437394736842105 0.008186842105263157 0.04295769230769231
0.07466478605819563 0.04096689113471905 0.03853647511713368
0.08942751281474802 0.04216476197035345 0.03641313939719394
0.0868813542918238 0.04437789257624816 0.02965635907364611
0.1074303981621426 0.06871891512202452 0.066797073974749
0.1347026315789474 0.008186842105263157 0.05171923076923078
0.1437394736842105 0.008186842105263157 0.05171923076923078
0.1347026315789474 0.008186842105263157 0.06048076923076924
0.1139849563089079 0.03930749245688666 0.06355809685278964
0.117466347929248 0.04032922323444301 0.07050918329928617
0.1437394736842105 0.008186842105263157 0.06048076923076924
0.1347026315789474 0.008186842105263157 0.0692423076923077
0.1437394736842105 0.008186842105263157 0.0692423076923077
0.1347026315789474 0.008186842105263157 0.07800384615384616
0.1437394736842105 0.008186842105263157 0.07800384615384616
0.05815242378445142 0.03893842708558044 0.01710917584172975
0.1118056902756752 0.04568927864188381 0.06964194899583656
0.1347026315789474 0.008186842105263157 0.007911538461538463
0.02774285131591493 0.0183726517197521 0.0497619782772206
0.1437394736842105 0.008186842105263157 0.007911538461538463
[...]
      <PointData>
        <DataArray type="UInt64" Name="type" format="ascii">
1
1
1
1
1
0
1
1
1
1
1
1
1
1
1
1
1
1
1
1
1
1
1
1
1
1
1
1
1
1
1
1
1
1
1
1
1
1
1
1
1
1
1
1
1
1
1
0
0
0
1
1
1
0
1
1
1
0
1
1
1
1
1
1
0
1
0
0
1
0
0
1
1
0
0
1
1
0
0
0
0
1
1
0
0
0
1
1
1
1
0
0
1
0
1
0
0
0
1
1
0
0
0
0
1
0
1
0
0
1
0
1
1
1
1
0
1
1
1
0
0
0
1
0
1
1
1
1
1
1
1
1
1
1
1
1
1
1
1
1
1
1
0
0
1
1
1
1
0
0
0
1
1
0
0
0
0
0
1
1
0
1
0
1
1
1
1
1
1
1
1
1
0
1
0
0
0
1
1
1
0
1
1
1
1
0
0
0
1
0
1
1
1
1
0
1
1
1
0
0
0
0
0
1
0
1
0
1
1
1
1
0
0
1
1
1
1
1
1
1
1
1
1
1
1
0
1
0
0
1
0
0
0
0
1
0
0
1
0
1
1
0
1
0
0
0
0
0
0
1
1
0
0
0
0
0
0
0
0
1
0
1
1
0
1
1
1
0
1
1
1
1
1
1
1
0
0
1
1
1
1
1
0
0
0
0
0
0
0
1
1
1
1
1
1
1
1
1
1
1
1
1
1
1
1
1
1
1
1
1
0
0
1
0
0
0
1
1
1
1
0
0
1
1
1
0
0
0
1
1
1
1
1
1
0
0
0
0
0
1
1
0
0
0
0
0
1
1
0
0
0
0
0
1
1
1
1
0
0
0
0
0
1
1
0
0
0
0
0
1
1
0
0
0
0
0
1
1
1
1
1
1
1
1
1
1
1
1
0
0
0
0
0
0
1
1
1
1
1
1
0
0
0
0
1
1
0
0
0
0
1
1
1
0
0
1
1
1
1
1
1
1
1
0
0
0
0
1
1
1
1
1
1
1
1
1
1
1
1
1
1
0
0
0
0
0
0
1
1
1
1
1
1
1
1
1
1
1
1
1
1
1
1
1
1
1
1
1
1
0
1
1
0
0
1
1
1
0
1
1
1
1
1
1
0
1
1
0
1
1
0
1
0
0
0
0
0
1
1
0
1
1
0
0
0
0
1
0
0
0
1
1
0
1
1
1
1
0
1
0
0
1
1
1
0
0
1
1
1
1
1
1
1
1
1
1
1
1
0
0
0
0
1
1
1
1
0
0
0
0
1
1
1
1
0
0
0
0
1
1
1
1
0
0
0
0
1
1
1
1
0
0
0
0
1
1
1
1
0
0
0
0
1
1
0
1
0
0
0
0
1
1
1
1
1
1
1
1
1
1
1
1
0
1
1
1
1
1
1
1
1
1
1
1
1
1
1
1
1
1
1
1
1
1
1
1
1
1
1
0
0
1
0
1
1
1
1
1
0
1
0
1
0
1
1
0
1
0
1
0
1
0
0
1
0
0
1
1
0
0
0
1
1
1
1
1
1
0
1
1
1
1
0
1
1
0
1
1
1
1
1
1
1
1
1
1
1
1
1
1
1
1
1
1
1
1
1
1
1
1
1
1
1
1
1
1
1
1
1
1
1
1
1
1
1
1
1
1
1
1
1
1
1
1
1
1
1
1
1
1
1
1
1
1
1
1
1
1
1
1
1
1
1
1
1
1
1
1
1
1
1
1
1
1
1
1
1
1
1
1
1
1
1
1
1
1
1
1
1
1
0
0
0
1
1
1
1
0
1
1
1
1
1
1
1
1
1
0
0
1
0
0
0
0
0
0
0
0
0
0
0
0
0
0
0
1
0
1
0
1
1
0
0
0
0
0
1
1
1
1
1
1
1
1
1
1
1
1
1
1
1
1
1
1
1
1
1
1
1
1
1
1
1
1
1
1
1
1
1
1
1
1
1
1
1
1
1
1
1
1
1
1
1
1
0
0
0
0
0
0
1
0
1
0
0
1
1
1
1
0
0
0
0
0
1
1
0
0
0
0
1
0
0
0
0
0
1
0
0
0
1
0
0
0
0
0
0
0
0
0
1
0
1
1
1
0
0
0
0
0
0
0
1
1
0
1
0
1
0
0
1
1
0
1
1
1
0
0
0
0
1
1
1
0
1
1
1
0
1
1
1
0
1
1
0
0
0
0
0
0
0
0
0
1
1
1
1
1
1
1
1
1
1
1
1
1
1
1
1
0
0
0
1
1
1
1
1
1
1
1
1
1
1
1
1
1
1
1
1
1
1
1
0
0
0
0
0
0
0
1
0
0
1
1
1
1
1
1
1
1
1
1
1
1
1
1
1
1
1
1
1
1
1
1
1
1
1
1
1
1
1
1
1
1
1
1
1
1
1
1
1
1
1
1
1
1
1
1
1
1
1
1
1
1
1
1
1
1
1
1
1
1
1
1
1
1
1
1
1
1
1
1
1
1
1
1
1
1
1
1
1
1
1
1
1
1
1
1
1
1
1
1
1
1
1
1
1
1
1
1
1
1
1
1
1
1
1
1
1
1
1
1
1
1
1
1
1
1
1
1
1
1
1
1
1
1
1
1
1
1
1
0
0
1
1
1
1
1
0
1
1
1
0
1
1
1
0
1
0
1
0
0
1
1
0
1
1
1
1
1
1
1
1
1
1
1
0
0
0
1
0
0
0
1
1
1
1
1
0
0
0
0
0
0
0
0
0
0
0
0
0
0
0
0
0
0
0
0
0
1
1
1
1
1
1
1
1
1
1
1
1
1
1
1
1
1
1
1
1
1
1
1
1
1
1
1
1
1
1
1
1
1
1
1
1
1
1
1
1
1
1
1
1
1
1
1
1
1
1
1
1
1
1
1
1
1
0
0
0
0
0
0
0
1
1
0
0
1
1
1
1
1
1
1
1
1
1
1
1
1
1
1
1
1
1
1
1
1
1
1
1
1
1
1
1
1
1
1
0
1
1
1
1
1
1
1
1
0
1
1
1
1
1
1
1
1
1
1
1
1
1
1
1
1
1
1
1
1
1
1
1
1
1
1
1
1
1
1
1
1
1
1
1
1
1
1
1
1
1
1
1
1
1
1
1
1
1
1
1
1
1
1
1
1
1
1
1
1
1
1
1
1
1
1
1
1
1
1
1
1
1
1
1
1
1
1
1
1
1
1
1
1
1
1
1
1
1
1
1
1
1
1
1
1
1
1
1
1
1
1
1
1
1
1
1
1
1
1
1
1
1
1
1
1
1
1
0
0
0
0
1
1
1
1
1
1
1
1
1
1
1
0
0
0
0
0
1
1
0
0
0
0
0
0
0
0
0
0
0
0
0
0
0
0
0
0
1
1
1
1
1
1
1
1
1
1
1
1
1
1
1
1
1
1
1
0
0
0
0
0
0
0
0
0
0
0
0
0
0
0
0
0
0
1
1
0
0
0
0
0
0
0
0
0
0
0
0
0
0
0
0
0
0
0
0
0
0
0
0
0
0
0
0
0
0
0
0
0
0
0
0
0
0
0
0
0
0
0
0
0
0
0
0
0
0
0
0
0
0
0
0
0
0
0
0
0
0
0
0
0
0
0
0
0
0
0
0
0
0
0
0
0
0
0
0
0
0
0
0
0
0
0
0
0
0
0
0
0
0
0
0
0
0
0
0
0
0
0
0
0
0
0
0
0
0
0
0
0
0
0
0
0
0
0
0
0
0
0
0
0
0
0
0
0
0
0
0
0
0
0
0
0
0
0
0
0
0
0
0
0
0
0
0
0
0
0
0
0
0
0
0
0
0
0
0
0
0
0
0
0
0
0
0
0
0
0
0
0
0
0
0
0
0
0
0
0
0
0
0
0
0
0
0
0
0
0
0
0
0
0
0
0
0
0
0
0
0
0
0
0
0
0
0
0
0
0
0
0
0
0
0
0
0
0
0
1
1
1
1
1
1
1
1
1
1
1
0
0
0
0
0
0
0
0
0
0
0
0
0
0
0
0
0
0
0
0
0
1
1
1
1
1
1
1
1
1
        </DataArray>
        <DataArray type="Float64" Name="density" format="ascii">
1000.256483548296
992.867633802342
1000.189045520677
992.8676340559626
998.7089912751313
1000
998.7599397075969
997.7852571458188
994.9700783825317
994.9700785770121
1000.999155407687
997.1105099870243
1000.999155466475
998.7599399073094
997.2827643764936
999.323221436026
999.3232214675993
996.6059664720131
999.8376376551682
998.1904127470875
1018.588955629856
997.1105099250535
990.065088360197
1018.588955414948
1005.366856362944
1002.145468956814
1002.145468969722
1005.822430077846
1000.210915089095
1005.822430235838
1000.210915135291
988.0155135899601
995.8960674975308
1002.626606199098
1002.131379452962
995.8960675125825
997.8441674574078
998.7599399913638
1000.770402175808
997.1105096098021
1000.852434338954
1007.115577551032
997.1105096495146
1001.925689749125
993.9560274653232
998.8801724298366
998.4148590900783
1001.828159503628
1000.393926945932
1000
996.5701169306776
992.6116280994178
996.5701169062939
1000.332067932742
1001.336490945691
999.8599058295243
999.8599058432483
1002.341657010683
1003.992906855515
998.1904126328195
1000.191039410262
998.1904126515468
996.5895521350237
1003.687709213172
1000.576999307549
1005.544742097417
1000.245931886265
1000
1005.544742204646
1000
1002.296072778677
1000.250505887078
1000.810799533546
1005.618906330139
1001.002638367314
1005.230987784836
997.7852573767415
1002.234726322422
1003.880148904853
1002.377610647977
1000.146398536161
995.5824601483305
993.5001075562318
1000.146398747154
1000.267646173142
1002.299726365532
993.5001075815823
998.7089913005918
1002.138303707209
1001.185897180565
1001.779237975732
1025.004839116924
1002.134200763563
1000.567741038385
1002.134200748404
1000.271006931889
1000.545584496589
1002.299726374636
1001.449600074609
999.794076070054
1002.296072793644
1000.576999300872
1000
1000
996.9861877956062
1000.393926927724
1003.382416422473
1002.33910479096
1000
1003.382416351655
1000.19631464603
999.7940760684642
999.3253117377864
996.1473809517865
996.1473810403317
1000.359857351558
1000.556947837864
996.3311278058477
998.1213927056322
1000
1000
1000.332067949946
994.5763505511463
1002.34165698999
995.3196243979803
999.5416799111603
998.1676447400544
994.9700783981696
994.9700781294082
999.6756482653697
999.2386623371499
1000.568689584533
1001.622013960459
999.9382489510634
1000.568689489572
1002.626606214791
999.5881527236489
1000.876819580788
1002.131379502753
1001.092514710486
993.9560275807056
1000.876819409527
1000
1001.828159518669
998.7965398394192
995.0752817536427
994.3000869685497
999.6511803056447
1000
1000
1000
1000.550951382116
1000.250505860853
1000.694869415227
1000
1000
1000
1000
1000.857807473581
997.844167516019
1025.004838961876
1000.999155394977
1000.567741042206
999.5416797956232
1000.999155358656
998.6846147563353
998.6846148899555
993.9560272590983
993.9560272469971
999.2386623879544
1004.20367285495
1004.20367296496
1000
1000.250505735999
1000
1000.146398743137
1000
999.4258742557594
1000.47103854388
1000.471038412601
1000.267646155108
995.0630771664643
1005.366856209571
996.2942826025853
995.8636110861652
1000
1000
1000
996.3472496181074
1000
1000.643906765499
1001.336490856813
1016.134543011762
996.5895521965847
1000
1000.529329725503
1000.643906748638
998.504092438494
1000
1000
1000
1000
1000
995.063077132644
1000
984.6807253088569
1000
1000.904108402003
1009.95048241279
996.546947628834
1003.687709258514
1000
1000
1000.904108223883
1000.411311123046
1001.969150266099
986.5530662681621
986.553066333489
999.5231577598886
998.4592411231823
1000.256483518757
1003.32519988541
1003.325199860687
999.3635596426578
1000.25648355997
1000
999.3635597032874
1000.021601706895
1000
1012.765547130012
1000.196314661322
1000
1021.503102846522
1000
1012.765547072877
1000
1002.222544641508
1001.983225975146
1000
999.5231578980301
1001.176932634038
1000.359857346863
1001.080254774668
1000.694869403101
1000
1000
1000
1000
1000
1001.622013994956
1000.835669562635
1000
1000
1000
1000
1000
1000
1000
1000
1000.804384177272
1021.925397690882
988.0155137119256
1001.176932547247
1000
1000.770402136498
1000.770402276179
1001.856342687172
1000
993.5819068234027
1000.076133748629
997.2827646802261
989.1542971211753
989.1542972927208
998.4505192470672
997.3234702615003
1000
1000
997.5053538149323
997.505354120519
999.8376376164672
999.3232215040578
999.3232214123947
1000
1000
1000
1000
1000
1000
1000.271006933209
1011.309019877018
1011.309019920932
1002.432815122616
1001.416023377508
999.4464501337972
997.6952733133144
1002.432815115218
1000.770402108957
999.9382489346883
990.0650887362759
998.7965398025095
998.0509018727223
1001.176921723622
990.5467367930274
998.7089912415328
990.5467368372889
997.695273229054
1005.816259313482
998.0509022247891
998.0509023442147
1016.556658932471
1000
1002.339104712021
1004.920254684352
1000
1000
1000
1002.607119422234
1000.189045502933
1002.607119351661
998.190412729854
1002.37761063702
1003.880148909273
1001.028298673553
1001.028298676007
998.8261390808597
1002.234726293138
1005.618906385077
1002.222544615357
1016.134543982784
1000.327891811483
1012.163386604638
1003.344582945365
1018.58895614598
999.4547703011104
1013.182477191091
1018.04997676669
1018.506906436575
1021.925397697989
1021.5031028665
999.4547702408083
998.3016023059733
1000.001338187956
1000.000695665252
1000
1000
1000
998.3016023157616
1016.556658787759
1000
1000
1000
1000
1000
1000.810799850529
997.7287644570212
1000.904108483668
1000.904108639552
1000
1000
1000
1000
1000
1002.607119271764
997.7287644072559
1000
1000
1000
1000
1000
1004.92025441801
1001.453492589455
1000
1000
1000
1000
1000
1002.607118997396
1002.145469053688
991.0597849971323
1000.191039601992
1002.145469141885
1001.453492614752
1000.997069922362
999.6756482492035
1000.997069919577
1018.588955949801
999.6978482026443
991.7800508701813
1000
1000
1000
1000
1000
1000
1000.327891884506
1000.516630815491
998.9141972457905
1001.176921758578
995.063077006837
995.0630771712352
1000
1000
1000
1000
998.9141972117449
1001.884224354236
1018.506906368776
1018.049976701427
1013.182477287786
1025.004839027257
1001.282123849962
999.454770177665
999.3142696595168
1000
1000
1000.727607910318
1000.109603117234
991.0597848448494
1001.883360498115
997.7101337062453
1001.453492457108
998.301602086124
1005.816259454862
1000
1000
1000
1000
998.7199062809912
999.4464501233343
1000.383653606338
1005.672176781356
999.3253118086026
1000.109602975421
998.0509021187423
1000.210915053781
1000.210915024346
1001.131407654425
999.292244553958
1001.883360565449
1005.366855854593
995.8636106561612
1000
1000
1000
1000.00133818931
1000.000695665451
1000
998.5040921182224
994.5763511305996
998.1676445907761
1000.529329552942
984.6807252720805
996.5469478577088
1009.950482353726
999.9470550112835
1003.971080058099
1003.609520783645
998.4311020582619
1001.416023424057
1000.72760811318
1000.391957841899
1002.01290330596
999.7094409206372
1001.070077604405
1001.983226015576
996.6300063707125
993.5462629030349
993.5462629228126
999.2922443803777
1000
1001.080254870662
1001.092514779687
1000
1002.299726246953
1002.43281502017
1002.432815024664
1000.25648368489
1000.262637114901
993.5819069780787
1003.971080084718
1003.609520639817
996.6059664974599
999.9470551188874
999.3847617521944
1000
1000.857807467923
999.5416799445887
1002.296072809643
999.5416798730483
999.5881525753119
1000.576999353004
991.7800509443661
1000.694869453252
1000.359857372392
1000.267646103251
1000
1000.196314694446
998.4592411461518
996.6300062824554
1001.828159363525
996.2942826919999
996.7903806573586
1000.393926902045
1000
1000.332067969012
1000
1000.604260050339
1000
1000
1000
1000.604260093281
1000.027734249125
1002.341657027983
990.5467367255998
1004.58778223445
998.8801724527056
992.6116281452273
1000
995.3196246290296
1000.56774083709
1000.27100690194
1000.199701252765
998.4148591344816
997.7101337401864
1000
1000
999.6710784603314
1000.391958074521
997.9992646437513
1001.239765334913
999.2386622714495
991.5712982049346
999.5207920130875
1001.449600077433
991.1625553065116
1000.383653617949
1000.189045435634
1000.382299566529
1000
1000.69486942532
1000.359857355522
1000
999.4098547119775
1000.382299557771
999.6511803110768
1003.772462554219
1000
1000
1000.196314721985
1000.021601746522
1000.751540635079
1000.742107804792
999.1724906867298
999.1724906588036
1000
1001.828159390196
1000.393926906865
1000
999.2011967440762
999.2011966388727
999.1232952019483
999.1232951710799
1000.332068009222
1002.3416571301
1000.576999357537
1000.245931969076
1001.28212381224
1000.550951265725
1005.672176939062
999.425874162204
1000
1000
1002.296072784962
1001.002638308894
1000.383653565735
1000.383653565295
1001.85634270131
1001.969150217451
1000.146398501717
1000.267646097725
1002.299726165411
1001.779237931057
996.9861878726484
999.2221591660887
1000
998.8261390872713
1025.004839241258
1000.567740824957
1000.271006878068
1000.545584449373
996.3311278308157
1002.302957287843
999.2386622355792
998.9922040199532
997.9961108183289
1000.327891979036
999.6710784627649
1000.783967638198
1001.453492555036
1000.997069962403
1000.997069949881
997.5498406658036
1000
1005.230987610756
1000.804384166074
1000.076133718685
999.5207920487392
999.3847617884809
1000.411311042024
1001.028298583326
1000.510535952502
997.5498406731265
1000.783967750752
1000.556947803302
1001.028298646549
1002.766264992248
999.4547702470267
998.914197387739
999.6978482293869
1000.486353852865
1000.24536493361
998.3016022102499
999.9382488955987
1000.327891863091
1000.565224814265
997.7287644452525
997.7287644449194
1003.344582985213
999.9382488520614
1000
1000
1003.775075484634
1000
998.4311019832979
1001.925689800203
1000.751540497482
1012.163387036471
999.1232952091553
1000
1000.245364873243
1000
999.1232952104994
1000
997.9992647725163
1001.07007744891
1000
1001.185897260979
1000.262637112916
1001.131407638044
1000
1000.550951315342
1000
1000
1002.555656934654
1000
1000
1001.969150323642
1000.411311066577
1000
1000
1000
1001.239765420112
1000.516630690695
998.9141972620047
991.1625552001577
999.409854620533
1002.134200750873
1000
997.1444460715653
1001.856342680328
1001.185897290629
999.1724907350251
1000
999.1724905780288
1002.13420075249
1000
1000.486353920742
997.1444461782431
999.0025406751445
1002.766265010501
1000.626550179924
996.7903806182657
995.5835274075283
999.218529997821
1003.348894868595
1000.023592519125
1000.082958362781
1000.076133792314
1007.244776824971
1003.775075579709
999.3731779902984
1001.131407631815
1001.469244842791
999.0025405666111
1001.44960010119
1004.970847328682
1000.808329572411
998.8518657860845
1006.895368993526
1000.02773422239
999.30082627353
1000.02359247154
1000.245365072494
999.2221591732053
1000.783967737183
1000.199701216272
999.300826504009
1000.082958369468
1000.38488703423
1003.836814307453
1005.633042256218
1002.302957316888
1003.83681428858
999.3731780604858
1001.239765426809
1006.11556969612
1001.46924497529
994.6989159159065
1000.604260133991
1005.63304206856
1001.698744235071
997.9961104961526
998.9922039540568
1005.230987522677
1004.970847357863
1002.555657009872
998.8518659761213
1000.808329610123
999.2922444493189
991.1625549548173
998.1213927085145
999.4098545013239
1001.69874420657
998.4311020639381
997.9992643759267
1000.391957892775
997.7101338118819
1001.883360518589
1001.126303145708
1000.626550248374
1001.925689493889
1005.672176805913
999.3847616884508
1000.109603014994
994.8548408687237
997.1302591330393
1001.416023417172
1000.384887229104
1001.126303154138
1000.857807386013
1001.070077613073
1001.28212391657
998.6846148543501
1000.804384142533
1012.765546767569
999.520792145979
995.3196247135269
997.3234699204507
996.1473808184141
999.7094411038653
999.2221593084097
1000.643907000253
1003.38241645148
1000.835669361501
1003.97107960728
1005.544741959137
999.9470551685913
993.5819065358512
1001.080254382137
1007.11557754188
1000
1000
1000
998.1676441337344
994.5763505636875
995.5824597173643
1000.52932983889
1000
995.8960676831929
1009.950482299824
984.68072524959
1005.822430134547
995.8636108804454
1016.134546521474
1002.012903348873
994.8548409406382
998.4592412178807
1000
1002.339105180292
992.8676334444901
1000
1000.000695665286
1000.001338193814
1000
1000
1000
1000
1000
1000
1000
1000
1000
1000
1000
1000
1001.185897231358
1000
1000.19103944575
1002.234726379231
991.0597846196234
1000.8107994541
1013.182477293636
1018.049976693049
1018.506906384011
1003.880149054439
1002.377610876485
998.9023745739136
1007.232327978861
988.2455412532674
988.2455413256793
1007.232327635791
998.2642442477812
998.2642443342289
998.902374594231
1003.671444225049
1003.671444228744
1000.379666162912
1000.379666206186
998.619584965931
1000.161076273548
1000.05981971475
1000.059819672334
1002.26118729341
1002.26118730516
1001.160723767202
1001.160723868855
1000.695952584417
994.3000869414788
996.347249592299
995.7280795407927
1003.651796000077
1000.231876228073
1004.587782279822
998.4505192165531
999.3142697060973
991.5712981840542
1000.510535969719
1003.772462597162
1003.517934158495
1003.517934125891
1000.695952590323
995.075281752255
1003.651796024274
1003.869653514476
1003.992906827184
998.1488978111747
998.1488977551141
998.7341119760725
998.7341120110175
1000.74210769837
1000.2318762731
1003.869653620012
995.7280795285259
999.8599058452504
1000
1000
1000
1000
1000
1000
999.0413224376119
1000
1001.136255799702
1000
1000
1001.586200947494
998.8444573128803
1002.361654136672
999.9179410038612
1000
1000
1000
1000
1000
1000.691029342616
999.9179409668192
1000
1000
1000
1000
999.1026228349749
1000
1000
1000
1000
1000
999.9391446433889
1000
1000
1000
999.2199123447593
1000
1000.262637113774
1000
1000
1000
1000
1000
1000
1000
999.0943174548576
1000
999.8319397108193
1000.199701296605
1000.104658641624
1000
1000
1000
1000
1000
1000
1000
999.5227558006707
1001.586200902609
1000
999.2199122722185
1000
999.4464501446582
1000
1000
1000.407740342575
1000.407740366575
1000
1000.055559107743
1000.691029222435
999.2184475831122
1000
1000
1000
1000
999.6473597241683
999.2184475860694
1000.19970121106
1000
1000.10465863876
998.8734734519236
998.6195849948845
1000
999.5770262741621
998.3790108695554
1000.444118101927
1000
999.3844448242955
1000.933059879293
1000
1000
1000
1000
1000
1000
1000
1000
1000
1001.586200827129
1001.586200824822
1002.55565713432
994.8548409343034
1001.126303094951
1005.633042298884
1000.486353849891
1007.115577344437
1003.609520868873
991.5712982343144
998.9922039662755
1005.366855417041
1000.245365272219
1003.992906722196
1000.7515405396
1003.99290672006
1000
1000
1000
1003.671444336736
1002.766264911416
1001.131407579533
1006.115569788431
1000.076133661258
1000.852434243001
1000.023592519829
1000.082958254746
1000.808329505447
1001.449599995358
998.9023745857608
1001.469244892586
1002.555657092717
998.9922039292666
999.4098544469612
999.6710785674754
1003.775075565639
1000.626550243024
996.790380551308
999.3142696413347
1021.925397854855
1005.618906383399
1000
1000
1000
1000
1000
1000.835669478204
1000
1000
1001.336490990888
1001.336490787278
1012.765546175516
986.5530662665545
990.5467363563932
999.7094415241045
996.6059667701056
1000.231876087558
1007.115577774992
1000.027734325686
1005.633042040765
1001.469244921115
998.1213927656009
1000.027734182576
998.1213927900069
1000.027734138412
998.7599397120601
995.5824601618498
996.7903806657497
995.7280795172029
1000.695952594247
1001.160723801
997.844167484979
997.8441674941654
995.7280794342814
1002.555656979399
1000.250505861177
1004.587782267436
999.523158065443
999.5231579513121
999.5231580349138
998.2642441969131
1003.772462514876
1000.510535846812
1002.555656935904
1006.115569726524
1002.766265026815
998.9922039888007
1003.651796070324
998.7089912211693
1000.082958471662
998.7199063054144
1000.189045376436
993.5819066759648
988.2455411563751
1000.231876357484
999.3142697648168
1002.261187272829
1003.67144421178
991.5712981790202
998.4505192313289
996.347249657887
1002.261187330837
1007.232327596227
1003.775075548093
1000.695952547804
998.9023747072464
998.992204028202
988.2455413121324
1000.059819702591
1004.587782179316
1000.023592536203
996.3472495134808
1000.382299531031
1000.808329554071
1000.38229950382
1003.7724624699
1000.382299696869
1003.651795960373
1000.059819737127
1000.626550225092
998.4505192059382
1000.379666215853