<VTKFile type="PolyData" version="1.0" byte_order="LittleEndian" header_type="UInt64">
  <PolyData>
    <Piece NumberOfPoints="1364" NumberOfVerts="1364">
      <Points>
        <DataArray type="Float64" Name="Points" NumberOfComponents="3" format="ascii">
0.008186842105263157 0.08951842105263157 0.11305
0.008186842105263157 0.08951842105263157 0.1218115384615385
0.04384416388775803 0.07989425922938101 0.02362932850206423
0.008186842105263157 0.08951842105263157 0.08676538461538462
0.02986121201951969 0.07143542151000619 0.00312919458254244
0.04384416405675073 0.09010574075767555 0.02362932860473452
0.008186842105263157 0.07144473684210526 0.1042884615384616
0.008186842105263157 0.07144473684210526 0.09552692307692309
0.008186842105263157 0.07144473684210526 0.08676538461538462
0.03182682402865181 0.07522108965391927 0.006784946591791759
0.008186842105263157 0.08951842105263157 0.09552692307692309
0.03532549412476829 0.07667590028668672 0.010767451642676
0.03863299899759601 0.09695651001241379 0.01065915199758193
0.008186842105263157 0.08951842105263157 0.1042884615384616
0.05593400458227038 0.06906119929188351 0.02409332155379492
0.04191710880352403 0.07794414434747411 0.01403142828638255
0.04057331130703655 0.0816620363452711 0.01484947546979426
0.05593400459988083 0.1009388006624399 0.0240933215676342
0.008186842105263157 0.08951842105263157 0.1393346153846154
0.008186842105263157 0.08951842105263157 0.130573076923077
0.008186842105263157 0.08951842105263157 0.1480961538461539
0.05618604293688245 0.06766825647479552 0.01645091724399304
0.03049222967636718 0.07970214893421627 0.007750506506316963
0.05838608747173707 0.1026342767414346 0.004694401151498373
0.0286007476919805 0.07953044087070636 0.00286360915621238
0.05618604283166953 0.1023317436199319 0.01645091724920026
0.04933104985873837 0.06833349527200296 0.01381356831727456
0.008186842105263157 0.07144473684210526 0.007911538461538463
0.008186842105263157 0.07144473684210526 0.01667307692307693
0.008186842105263157 0.07144473684210526 0.02543461538461539
0.05255371230785667 0.09995319763104969 0.003929581338221922
0.008186842105263157 0.07144473684210526 0.03419615384615385
0.008186842105263157 0.07144473684210526 0.04295769230769231
0.008186842105263157 0.07144473684210526 0.05171923076923078
0.008186842105263157 0.07144473684210526 0.06048076923076924
0.008186842105263157 0.08048157894736842 0.09552692307692309
0.008186842105263157 0.07144473684210526 0.07800384615384616
0.008186842105263157 0.07144473684210526 0.0692423076923077
0.05142539401638842 0.07411288282408456 0.02398895438831598
0.05142539416686135 0.09588711731881489 0.023988954450315
0.04715511687750122 0.09509349551862083 0.01401750533439532
0.04933104952424511 0.1016665049395406 0.01381356793167351
0.02952904443517246 0.066589850495818 0.001362676952945055
0.008186842105263157 0.08048157894736842 0.0692423076923077
0.008186842105263157 0.08048157894736842 0.07800384615384616
0.03532549431242817 0.09332409965334684 0.01076745204282259
0.04715511714609678 0.07490650482632097 0.01401750518350803
0.04396137591389285 0.09704853012753881 0.01273004619407115
0.06602489256636193 0.08162212608264066 0.002568370092281768
0.06602489266999476 0.08837787394189742 0.002568370172667966
0.05246330653926135 0.0986178456720357 0.01101871312589524
0.0304603386416918 0.08665892538668384 0.008807385646142292
0.03182682385492372 0.09477891024080502 0.006784946803713823
0.06419154067075726 0.07418651018083339 0.01669698766040352
0.05838608748079063 0.06736572331317024 0.004694401067199345
0.05100703221406866 0.07398418505970979 0.002501302342194566
0.03049222943734925 0.09029785073723774 0.007750506487423345
0.03046033845731902 0.08334107432066881 0.008807385333531753
0.008186842105263157 0.08048157894736842 0.1042884615384616
0.008186842105263157 0.08048157894736842 0.08676538461538462
0.0386329988296182 0.07304349015824045 0.01065915151157131
0.04585241266165366 0.08817100990198282 0.001521953440769082
0.0499535841558174 0.08204343113868677 0.0240873254695904
0.04585241286671551 0.0818289898343679 0.001521954085628378
0.05246330683995909 0.07138215434064125 0.01101871330146461
0.008186842105263157 0.08951842105263157 0.0692423076923077
0.008186842105263157 0.08951842105263157 0.07800384615384616
0.04995358450662039 0.0879565689065171 0.02408732543467115
0.05769807460825899 0.07975636342257877 0.01971872283494151
0.0286007475939552 0.09046955888557792 0.002863609123011947
0.05100703209538979 0.09601581458815295 0.00250130247348578
0.05769807456906731 0.0902436366860121 0.01971872293162468
0.06266324587284669 0.08874839434170569 0.01082628556465828
0.06266324560518394 0.08125160584246792 0.01082628602649075
0.04396137613769574 0.0729514702445504 0.01273004634238761
0.02952904464740857 0.1034101496003614 0.001362677255408084
0.008186842105263157 0.08048157894736842 0.06048076923076924
0.008186842105263157 0.08048157894736842 0.05171923076923078
0.008186842105263157 0.08048157894736842 0.04295769230769231
0.02986121198441405 0.09856457813998432 0.00312919485464225
0.008186842105263157 0.08048157894736842 0.03419615384615385
0.008186842105263157 0.08048157894736842 0.02543461538461539
0.008186842105263157 0.08048157894736842 0.01667307692307693
0.008186842105263157 0.09855526315789473 0.007911538461538463
0.008186842105263157 0.09855526315789473 0.01667307692307693
0.008186842105263157 0.09855526315789473 0.02543461538461539
0.008186842105263157 0.09855526315789473 0.03419615384615385
0.008186842105263157 0.09855526315789473 0.04295769230769231
0.008186842105263157 0.09855526315789473 0.05171923076923078
0.008186842105263157 0.09855526315789473 0.06048076923076924
0.05255371240753742 0.07004680253908487 0.003929581396780181
0.008186842105263157 0.08048157894736842 0.007911538461538463
0.0403083910073973 0.09568290368136102 0.02082992612943037
0.04191710850256909 0.0920558557925522 0.0140314281281669
0.04030839081450716 0.07431709646724632 0.02082992591229219
0.008186842105263157 0.08951842105263157 0.06048076923076924
0.008186842105263157 0.08951842105263157 0.05171923076923078
0.008186842105263157 0.08951842105263157 0.04295769230769231
0.008186842105263157 0.08951842105263157 0.03419615384615385
0.008186842105263157 0.08951842105263157 0.02543461538461539
0.008186842105263157 0.08951842105263157 0.01667307692307693
0.008186842105263157 0.08951842105263157 0.007911538461538463
0.04057331292676075 0.08833796364523358 0.01484947595086885
0.07060352943233274 0.07579970300787932 0.001595960382311882
0.07060352943609742 0.09420029698217508 0.001595960399631719
0.03158768354087534 0.1155050998045524 0.01151831709889021
0.02397947320898967 0.1242266861899677 0.01774096480587447
0.03041052849233848 0.1150412855388693 0.008131218219084619
0.0308264049788786 0.1183573139828 0.0155176676731903
0.02476201261050065 0.1411392373119452 0.01368843702746146
0.02886076259016668 0.1452379875328305 0.01368843722087886
0.02775533490326855 0.1422446650512386 0.007882342002493424
0.02399176295076902 0.1460082370439748 0.01456484151711513
0.02968028088546226 0.1208704775578644 0.008811760750372438
0.008186842105263157 0.1256657894736842 0.007911538461538463
0.008186842105263157 0.1256657894736842 0.01667307692307693
0.008186842105263157 0.1256657894736842 0.02543461538461539
0.008186842105263157 0.1256657894736842 0.03419615384615385
0.03039990825096083 0.13978750964991 0.005190873561567088
0.03021249043313175 0.139600091676695 0.00519087348604677
0.03048475781520178 0.1395152417710345 0.007843857416562169
0.02820813433210308 0.1417918659559139 0.01358840781534956
0.02662294792799568 0.121508977517342 0.01430597754972382
0.02651885904907809 0.1232950593937106 0.01267633890499636
0.02646261965170094 0.1229457560364962 0.02060849547598338
0.04884011730185874 0.1104423006481519 0.003639678561416381
0.03372483275163092 0.1130608707493439 0.01151707549789434
0.03220226714524109 0.1145695084343457 0.002573805389675373
0.008186842105263157 0.1075921052631579 0.007911538461538463
0.008186842105263157 0.116628947368421 0.007911538461538463
0.008186842105263157 0.1075921052631579 0.01667307692307693
0.008186842105263157 0.116628947368421 0.01667307692307693
0.008186842105263157 0.1075921052631579 0.02543461538461539
0.008186842105263157 0.116628947368421 0.02543461538461539
0.008186842105263157 0.1075921052631579 0.03419615384615385
0.008186842105263157 0.116628947368421 0.03419615384615385
0.03139943877136109 0.1081889414056431 0.002548761952633636
0.03450306596434938 0.1051137913718993 0.006299201636519379
0.04814843428225397 0.1107401247023406 0.01208283460133894
0.05134191433741089 0.1071324852173647 0.01642028856959551
0.02865552249498612 0.1248900460808712 0.02585726002444583
0.05176559573197556 0.111729990699621 0.02034344682794685
0.09588711726796732 0.051425394184448 0.02398895449656221
0.09205585573976025 0.04191710862128163 0.01403142822978095
0.08817101010735687 0.04585241270615922 0.001521953774229538
0.1023317435830599 0.05618604281631027 0.01645091727267627
0.08665892556779732 0.03046033856279645 0.008807385420166569
0.09029785089911344 0.03049222973118637 0.007750506663658027
0.09046955894313523 0.02860074762883313 0.002863609136805242
0.1016665047893372 0.04933104957069446 0.01381356807119649
0.09861784554855914 0.05246330659838244 0.01101871320509026
0.09601581465289609 0.05100703217410195 0.002501302450368504
0.09509349549003816 0.04715511698382689 0.01401750547870142
0.09568290365287983 0.04030839096409874 0.02082992611412933
0.08951842105263157 0.008186842105263157 0.03419615384615385
0.09855526315789473 0.008186842105263157 0.03419615384615385
0.1009388006956355 0.05593400459634792 0.02409332163115086
0.09704853011060545 0.04396137599724406 0.01273004624829531
0.09332409978724591 0.03532549441110184 0.01076745194361255
0.09855526315789473 0.008186842105263157 0.02543461538461539
0.08951842105263157 0.008186842105263157 0.02543461538461539
0.09855526315789473 0.008186842105263157 0.01667307692307693
[...]
      <PointData>
        <DataArray type="UInt64" Name="type" format="ascii">
0
0
1
0
1
1
0
0
0
1
0
1
1
0
1
1
1
1
0
0
0
1
1
1
1
1
1
0
0
0
1
0
0
0
0
0
0
0
1
1
1
1
1
0
0
1
1
1
1
1
1
1
1
1
1
1
1
1
0
0
1
1
1
1
1
0
0
1
1
1
1
1
1
1
1
1
0
0
0
1
0
0
0
0
0
0
0
0
0
0
1
0
1
1
1
0
0
0
0
0
0
0
1
1
1
1
1
1
1
1
1
1
1
1
0
0
0
0
1
1
1
1
1
1
1
1
1
1
0
0
0
0
0
0
0
0
1
1
1
1
1
1
1
1
1
1
1
1
1
1
1
1
1
1
0
0
1
1
1
0
0
0
0
0
0
0
0
0
0
0
0
1
0
0
1
0
0
1
1
1
1
1
1
1
1
1
1
1
0
0
0
0
0
0
1
1
1
1
1
1
1
1
1
1
1
1
1
1
1
1
1
1
1
1
1
1
1
1
1
1
1
1
1
1
1
1
1
1
0
0
0
0
0
1
1
0
0
0
0
1
1
0
0
0
0
0
0
1
0
0
0
0
0
0
0
0
0
0
0
0
0
0
0
0
0
0
0
1
1
1
0
0
0
0
1
0
0
1
1
1
1
0
0
0
0
1
0
0
0
1
1
1
1
1
0
1
0
1
1
1
1
1
1
1
1
0
1
1
0
0
0
1
1
1
1
1
1
1
1
1
1
1
1
1
1
1
1
1
1
1
0
0
0
0
0
0
0
0
0
0
0
0
0
0
0
0
0
0
0
0
0
0
0
0
0
0
0
0
0
0
0
1
1
1
1
1
1
1
0
0
0
0
0
0
0
0
0
0
0
0
0
0
0
0
0
0
0
0
0
1
0
0
0
0
0
0
0
0
0
0
1
0
0
0
0
0
1
1
1
1
1
1
1
1
1
1
1
1
1
1
1
1
0
1
0
0
1
1
1
1
1
1
1
1
0
0
0
0
0
0
1
0
0
0
0
1
1
1
0
0
0
0
1
1
1
0
0
0
0
0
0
0
0
1
0
0
0
0
0
0
0
0
0
0
0
0
0
0
0
1
0
0
1
0
0
0
0
1
0
0
0
0
0
0
0
0
0
0
0
0
0
0
0
0
0
0
0
0
1
0
0
0
0
1
1
1
1
1
1
1
1
1
1
1
1
1
1
1
1
1
1
1
1
1
1
0
0
0
0
1
1
1
1
0
0
0
0
0
0
0
0
0
0
0
0
0
0
0
0
0
0
0
0
0
0
0
0
0
0
0
0
0
0
0
0
0
0
0
0
0
0
0
0
0
0
0
0
0
0
0
0
0
0
0
0
0
0
0
0
0
0
0
0
0
0
0
0
0
0
0
0
0
0
0
0
0
0
0
0
0
0
0
0
0
0
0
0
0
0
0
0
1
1
1
1
1
1
0
1
0
0
0
0
0
0
0
0
0
0
0
0
0
0
0
0
0
0
0
0
0
0
0
0
0
0
0
1
1
1
1
1
1
1
1
1
1
1
1
1
1
1
1
1
1
1
1
1
1
1
1
1
1
1
1
1
1
1
1
1
1
1
1
1
1
1
1
1
1
1
1
1
1
1
1
1
1
1
1
1
1
1
1
1
1
1
1
1
1
1
1
1
1
1
1
1
1
1
1
1
1
1
1
1
1
1
1
1
1
1
1
1
1
1
1
1
1
1
1
1
1
1
1
1
1
1
1
1
1
1
1
1
1
1
1
1
1
1
1
1
1
1
1
1
1
1
1
1
1
1
1
1
1
1
1
1
1
1
1
1
0
0
0
0
0
0
0
0
0
0
0
0
0
0
0
0
0
0
0
0
0
0
0
0
1
0
0
0
0
1
0
0
0
0
0
0
0
0
1
0
0
0
0
1
0
0
0
1
0
0
0
1
1
1
0
0
0
0
0
1
1
1
1
0
1
0
1
1
0
0
0
0
0
0
0
0
0
0
0
0
0
0
0
0
0
0
0
0
0
0
0
0
0
0
0
0
0
0
0
0
0
0
0
0
0
0
0
0
0
0
0
0
0
0
0
0
0
0
0
0
0
0
0
0
0
0
0
0
0
0
0
0
0
0
0
0
0
0
0
0
0
1
1
1
1
1
1
1
1
1
1
1
1
1
1
0
1
1
1
1
0
1
1
1
1
0
1
1
1
1
0
1
0
0
1
0
0
0
1
1
1
0
1
1
1
0
1
1
0
1
1
1
1
1
1
1
1
1
1
1
1
1
0
0
0
1
1
1
1
1
1
1
1
1
1
0
0
1
0
1
0
0
0
1
1
1
0
0
0
1
0
0
0
1
1
0
0
0
1
0
0
0
1
0
0
0
0
0
0
1
1
1
1
1
1
1
1
1
1
1
1
1
1
1
1
1
1
0
1
0
1
1
0
1
0
1
1
0
1
1
0
1
1
1
1
1
1
1
1
0
1
0
0
1
1
1
1
1
1
1
1
1
1
1
1
1
1
1
1
1
1
1
1
1
1
1
1
1
1
1
1
1
1
1
1
1
1
1
1
1
1
1
1
1
0
0
0
0
0
0
0
0
0
0
0
0
0
0
0
0
0
0
0
0
0
0
0
0
0
0
0
0
0
0
0
0
0
0
0
0
0
0
0
0
0
0
0
0
0
0
0
0
0
0
0
0
0
0
0
0
0
0
0
0
0
0
0
0
0
0
0
0
0
0
0
0
0
0
0
0
0
0
0
0
0
0
0
0
0
0
0
0
0
0
0
0
0
0
0
0
0
0
0
0
0
0
0
0
0
0
0
0
0
0
0
0
0
0
0
0
0
0
0
0
0
0
0
0
0
0
0
0
0
0
0
0
0
0
0
0
0
0
0
0
0
0
0
0
0
0
0
0
0
0
0
0
0
0
0
0
0
0
0
0
0
0
0
0
0
0
0
0
0
0
0
0
0
0
0
0
0
0
0
0
0
0
0
0
0
0
0
0
0
0
0
0
0
0
0
0
0
0
0
0
0
0
0
0
0
0
0
0
0
0
0
0
0
0
0
0
0
0
0
0
0
0
0
0
0
0
0
0
0
0
0
        </DataArray>
        <DataArray type="Float64" Name="density" format="ascii">
1000
1000
999.0692256959071
1000
997.7222900822966
999.0692250808203
1000
1000
1000
1002.169175566288
1000
1000.114113483406
1000.599402521436
1000
998.7713470062678
1003.784638139352
999.6535505224431
998.7713466692159
1000
1000
1000
1001.124816700589
996.5701288916293
999.3567046178927
1003.015888694981
1001.124817101775
1001.948157779261
1000
1000
1000
999.760147814206
1000
1000
1000
1000
1000
1000
1000
999.2936757171384
999.2936746216191
999.8727740434899
1001.948159856935
997.2879864338963
1000
1000
1000.114113511144
999.8727732076624
1003.284709964182
997.2861199191479
997.2861196730145
996.2740871129605
995.9342207877695
1002.16917631355
998.9890956884777
999.356703797074
996.9211717226887
996.5701287322021
995.9342200811648
1000
1000
1000.599402513386
998.9444036458718
997.4288176359134
998.9444030288369
996.2740874394209
1000
1000
997.4288169153505
999.8711569153237
1003.015888681109
996.9211710020942
999.8711567495052
1000.580312389897
1000.580312508275
1003.284709208779
997.287985948658
1000
1000
1000
997.7222904367806
1000
1000
1000
1000
1000
1000
1000
1000
1000
1000
999.7601476218688
1000
999.5999308214541
1003.784639993436
999.5999309683958
1000
1000
1000
1000
1000
1000
1000
999.6535532434815
1001.486286440191
1001.486286311116
999.6381703949592
1000.603708208686
998.2855964990193
994.5494549480374
995.7012107927962
995.7012119404366
997.3925980300705
994.4305219429066
998.2219114572478
1008.328565332745
1000
1000
1000
999.8503385169158
999.8503385791037
998.4233671858868
996.140265684029
998.1725271300346
1001.336118136861
1000.464154664213
997.1980571451983
998.6857874224561
998.3176894318747
1000
1000
1000
1000
1000
1000
1000.005080037709
1000
1001.640670783162
992.7296579226178
997.8163041230005
999.0128773142167
998.2882879441388
1001.601887978544
999.2936751279949
1003.784639169018
998.9444042045905
1001.124817236249
995.9342197996268
996.5701290878554
1003.015889097014
1001.948159957364
996.2740873909721
996.9211715061888
999.8727740677846
999.5999312260645
1000
1000
998.7713465707611
1003.284710429755
1000.11411339325
1000
1000
1000
1000
1000
1000
1000
1000
1000
1000
1000
1000
1001.486286056358
1000
1000
999.8711566015429
1000
1000
1000.580312267356
997.2861195288966
1002.169176302279
997.2879863228841
1000.599402797212
999.3567044916306
998.6059733284783
999.0692255377099
997.7222897892443
997.4288170568003
999.7601479411311
1000
1000
1000
1000
1000
1000
999.6535512789135
990.4574161910845
1001.60188879241
998.7713466485972
1001.60188880807
998.5001139601596
1000.256294944843
1001.124817597013
999.3427568941721
1003.035236920663
1002.025797560549
999.3165546640994
999.2936750927114
998.9890944871573
999.3567043397173
996.2740878680853
999.0128766511751
999.5999310010865
997.4288167998309
997.7134695569491
994.6125942395656
999.7758128722263
1003.976605054143
999.7793697762927
996.9211716735899
999.7601478077023
1000.938063481937
1000.938063567917
996.7592051670724
999.6381704784703
1000.256295393259
1000.603708764326
999.0692252359346
999.0128766170188
1000
1000
1000
1000
1002.146314448956
999.7216921014718
995.9342198636508
1003.973424603526
1000
1000
1000
999.6535506999928
1003.015888962634
1000
1000
1000
1000
1000
1000
998.2855965854835
1000
1000
1000
1000
1000
1000
1000
1000
1000
1000
1000
1000
1000
1000
1000
1000
1000
1000
1000
998.6059736541498
995.6981542016732
1001.597215238145
1000
1000
1008.328564900856
1017.704381560755
1002.9513178053
1000
1000.005080031315
998.6857873156509
999.3172074278493
996.5701289047522
998.3176893872043
1000
1000
1000
1000
997.2879857411486
1000
1000
1000
994.549455699944
998.221911685407
1001.640671782561
1003.784638697206
998.9444038675429
1000
1001.284760297119
1000
1003.284710117336
1000.114113552211
1000.464152332023
1000.599403053415
997.8163035626025
997.1980586941525
998.6092806271192
1001.070567010955
1000
1001.336118674211
997.7222905249356
1000
1000
1000
997.8259298099753
998.1725274724092
1002.169176186912
1001.948159224082
999.8727742089607
992.729657559313
1010.464725106969
998.2882888559024
998.2924324336278
997.2861195949172
1001.486286590238
1000.580312604837
999.8711567118071
997.1980588749108
995.5089447311037
997.8163050256267
999.6606720884981
1000.444413173045
996.7592050729115
1000
1000
1000
1000
1000
1000
1000
1000
1000
1000
1000
1000
1000
1000
1000
1000
1000
1000
1000
1000
1000
1000
1000
1000
1000
1000
1000
1000
1000
1000
1000
999.3172065289574
1001.640670759653
998.1725279636609
1002.951315189622
1000.464149645753
992.7296637923002
994.5494556590129
1008.328565294207
1000
1000
1000
1000
1000
1000
1000
1000
1000
1000
1000.005080018189
1000
1000
1000
1000
1000
1000
1000
1000
1000
998.3176888606478
1000
1000
1000
1000
1000
1000
1000
1000
1000
1000
998.2855987075792
1000
1000
1000
1000
1000
999.6381746120713
1001.336118592318
998.6857927567904
998.2219109971956
1010.464726663463
999.7216907252664
998.0568599250788
999.8503386132646
999.8503386793017
998.4233670699599
1000.603707601985
1017.561689760334
999.9323354120828
1000.922823135953
998.9810179700397
998.9810196317881
1000
994.4305224744203
1000
1000
1002.347461637643
998.6059740258521
996.140266060417
995.6981547148691
1004.313469456255
995.7012115084497
995.7012126094925
993.1516380378755
1000
1000
1000
1000
1000
1000
999.5253374022586
1000
1000
1000
1000
998.6092821078311
1001.284759883132
1001.070567469771
1000
1000
1000
1000
1000.113050130047
995.5385428722493
995.5385408971244
1000
1000
1000
1004.746250618836
1000
1000
1000
1000.097850734336
997.3925982379164
1000
1000
1000
1000.190097585368
1000
1000
1000
1000
1000
1000
1000
1000
1000
1000
1000
998.2924324835022
1000
1000
1000.113050051204
1000
1000
1000
1000
1001.479908067769
1000
1000
1000
1000
1000
1000
1000
1000
1000
1000
1000
1000
1003.973425025227
1004.746251072089
1000.097850773482
1000
1002.146314432158
1000.190098390817
1000
1000
998.5196879024752
1017.70438131669
1000
1000
1000
995.508944914644
999.8559945020251
999.8559947761403
1001.322962230074
1001.322961614379
999.6606728410073
997.0427031757758
999.2590231597061
999.2590236131564
1005.025327603275
1000.444412959658
999.7839198748773
999.7839206759277
1000.92282316331
1000.430312591259
1001.132799504188
997.7134710617726
998.288287978316
1001.132799494608
999.8517820648558
999.9323349935415
999.4491056767706
1000
1000
1000
1000
1000.430312683972
998.9275144415232
999.941306563166
999.9413066585532
1000
1000
1000
1000
1000
1000
1000
1000
1000
1000
1000
1000
1000
1000
1000
1000
1000
1000
1000
1000
1000
1000
1000
1000
1000
1000
1000
1000
1000
1000
1000
1000
1000
1000
1000
1000
1000
1000
1000
1000
1000
1000
1000
1000
1000
1000
1000
1000
1000
1000
1000
1000
1000
1000
1000
1000
1000
1000
1000
1000
1000
1000
1000
1000
1000
1000
1000
1000
1000
1000
1000
1000
1000
1000
1000
1000
1000
1000
1000
1000
1000
1000
1000
1000
1000
1000
1000
1000
999.4275373942401
999.4477530276076
999.2567545714288
1000.136317964494
999.2078057007199
999.6859116125962
1000
999.8797672559558
1000
1000
1000
1000
1000
1000
1000
1000
1000
1000
1000
1000
1000
1000
1000
1000
1000
1000
1000
1000
1000
1000
1000
1000
1000
1000
1000
992.7296595495815
1000.444411950596
996.7592038962246
1000.25629559773
1001.28475959483
993.151638179825
997.7134693731252
1000.938063558139
1000.938064025879
999.6535509121572
1001.597215229704
1000.114113113438
999.2567546890314
1000.136317983364
999.8797671780112
999.6859115959513
998.2924332559289
998.9444036267254
998.5001140592316
999.4477529162823
999.9413064689293
996.5701291900535
999.3172079939465
998.7713470297393
1000.256293846947
999.2078055418002
997.042703290419
1002.169175522144
999.7216919090479
1000.430312652501
1000.430312412356
998.9275146353061
1003.01588922388
1001.1248163112
999.941306633008
998.9890955876012
1001.479908423406
998.9890947418764
999.8727734314253
997.7222883537692
999.5999309117424
996.9211719345074
1000.938063618322
999.7758129182557
999.3172054442034
998.2924313090906
996.7592054540589
999.7216903538985
1000.444412900694
1000.580312478811
1003.784638476487
997.2861194570183
999.2936757317101
1000.580312360021
999.8711567601778
997.4288167920087
997.4288177816667
999.0692250350251
1001.486285914785
999.3427570511805
999.0128772862122
1001.601888901586
999.8517819642148
999.4491054970595
999.7601479909632
1000.922823168864
1001.948158571803
1001.132799219029
999.3567042136478
997.286119702869
1001.132799314098
1001.486285956082
999.3165547106543
999.4275373537511
999.8711568243654
997.8259304983619
999.9323349149043
1000.922823119801
999.7793701097069
1002.025797019139
997.713470473758
999.783920204636
1003.284709753326
999.6606715520476
996.2740867559596
999.8727745876539
1010.464730621307
995.6981549868837
1000.464151233353
1002.951315993398
998.2882867675439
995.5089452399232
995.508944503759
1000.11305046367
1000.113049992128
1003.784639555636
999.6535526910939
998.9444034827628
998.0568605885001
999.0692258869948
998.6092803716741
999.6381757889746
1010.464726187586
998.6092820154203
997.2879872530957
1000.603706987614
1002.951318169986
999.783921022192
1017.561693239214
998.285600700631
998.9810172553217
998.9810196821819
1000.599402695678
998.6059736952993
1003.976605063377
997.1980568370459
1004.313469232866
999.8559945694442
998.5196881794349
994.5494538228581
999.8559948600341
1002.347461580813
990.4574149076942
998.2219109470155
998.3176881220463
999.6606724776292
1005.025326956565
995.5385431189363
995.5385402265395
1001.64066871613
1001.336117484317
999.525337394007
1001.28475922656
1000
1000
1000
1000
1000
1000
1000
1000
1000
1000
1000
1000
1003.973425400413
1004.746251853145
1000.097851267135
1000
1000
1002.146314925313
1000.190099084664
1000
1017.704381367869
1000
1000
1000
998.1725279976583
1002.146314482027
1000.190097999868
1000
1000
992.7296645565104
1003.973424586242
1004.746251152715
1000.097851389304
1000
1000
1000
1000
1000
997.816305917564
1000
1000
1000
1000
999.9323356686732
1000
1000
1000
999.2590232061059
1000
1000
1000
999.2590239096373
1001.070566963082
1001.070566378522
1000
1000
1017.704381152225
1008.328565791493
1000
994.6125934298716
995.6981549254893
1001.322961233165
1001.322962091436
1000
998.6857949104783
1000
1003.035236651078
1000.938063543043
1000
1000
1000
1000
1000
1000
1000
1000
1000
1000
1000
1000
1000
1000
1000
1000
1000
1000
1000
1000
1000
1000
1000
1000
1000
1000
1000
1000
1000
1000
1000
1000
1000
1000
1000
1000
1000
1000
1000
1000
1000
1000
1000
1000
1000
1000
1000
1000
1000
1000
1000
1000
1000
1000
1000
1000
1000
1000
1000
1000
1000
1000
1000
1000
1000
1000
1000
1000
1000
1000
1000
1000
1000
999.7216917280624
998.6059734917682
1000.603708139027
999.6381715667951
999.4275374037893
999.4477529435305
996.2740866127871
1003.035236613786
1002.025797089672
1000.256294581425
1001.597215272916
999.2078055658737
998.2924318318097
1000.92282321076
1000
1001.601888404299
997.7134692376375
1001.132799345368
999.7758129246592
1000
1001.124816304203
1003.784639203421
999.3172069832206
999.3567044189759
1000
999.9323356939378
1000.444412917638
1001.486285771953
999.0692253425955
1000
1000.938063290849
1000
1000
999.012876965845
1000
1000
1017.704381558206
997.4288178548592
997.4288178232067
999.8711569675347
1000
999.9413066267111
999.0128776219817
998.2924326981089
1002.146314916634
1001.479908323556
997.286119865479
1003.97342475369
998.2855982496468
999.293675179504
999.932334989961
999.8711568822594
995.6981546496748
997.816304223605
997.286119899975
1000.580312627299
998.9444028357416
1000.580312416314
998.9275145813416
999.5999304259216
1001.486286031126
1000.005080030527
1000
1000
1001.601888315757
998.7713470284358
999.3165546965635
1010.464728219937
998.0568605576481
1000.430312605142
999.3427572611942
998.50011410936
999.3172065568909
999.7216905941832
1000
1000
1004.313469399481
1000
996.7592050847413
1000
1000
1000
995.508944776521
994.6125934987609
1005.025326833643
1008.328565273993
1000
1000
998.6092805372389
1000
1000
1000
998.9444021180196
1001.070566531222
1000
1000
1000
1000.256295077642
1000
1000
1000
999.653553036263
1000
1000
1000
1000
1000
1000
999.6535523462634
1001.284759711239
999.0692253738551
997.8259305064259
990.4574147836989
999.6606719469444
1003.976605269919
998.3176892975736
998.22191123466
999.779370198205
998.6857888804797
1001.336117866469
1001.640670372166
998.1725271771002
1003.284709197783
1002.951316257222
1000.599402255922
994.5494546661515
1000
992.7296629656453
1000
1000.464153082098
996.7592041594751
1000
997.1980569012845
1000
998.9890956898641
1003.784639412893
1000
997.1980572113057
998.2882876981956
1000
999.7601476149241
1000.114113405994
1002.951318199139
1001.94815846083
996.9211711864158
1000.113050579988
1010.464728643233
999.8727734887882
1000
997.8163056731311
1000
1000
1001.124818088973
999.2936752322049
999.3567042424467
999.7793701930394
998.9890943888371
996.2740877034025
999.0128762506035
999.7601475684997
1001.948159220535
996.9211715016163
997.1980590976216
998.5001139414043
1000.25629503739
1000.256295620338
998.7713464384431
999.3427572077834
997.8259294981165
1003.976605888131
1001.601889195297
1002.025797525555
997.8163029570584
999.7758125942277
990.4574162697965
998.9890947022998
999.316554817527
998.7713470652068
996.2740875726304
999.7601473828464
999.0128764146866
1001.948157496881
999.8727734437966
1001.12481638491
997.1980584457908
998.9890959420976
1000.938063653097
996.9211712042921
999.2936759386446
1001.601888978171
997.816305151898
999.3567041415544
1003.035236997379
1000
1000
1000
1000
1000
1000
1000
1000
1000
1000
1000
1000
1000
1000
1000
1000
1000
1000
1000
1000
1000
1000
1000
1000
1000
1000
1000
1000
1000
1000
1000
1000
1000
1000
1000
1000
1000
1000
1000
1000
1000
1046.387223131641
1000
1000
1000
1000.224492736106
1000
1000
1000
1000
1000
1000
1000
1000
1000.224492741561
1000
1000
1000
1037.837611533299
1000
1000
1000.16870506622
1000
1000
1000
1000.000000603784
1000.134883852112
1000
1000.051999332969
1000
1000
1000
1042.502209630879
1000
1000
1000
1000.109934694971
1017.819509696777
1032.030865074802
1000
1000
1000
1000
1000
1000
1000
1000
1000
1000.170420880517
1000
1000
1000
1000
1000
1000
1000
1000
1000
1000
1035.743896708057
1000
1001.250415016163
1000.170420880552
1000
1000
1000
1000
1000
1000.114227034227
1035.74389672774
1000
1000
1000
1000
1000
1028.537426049735
1000
1000
1000
1000
1000
1000
1000.051999332846
1000
1000
1000
1000.168705066691
1000
1000
1000
1000.114227034887
1000
1000
1000
1000.134883852154
1000.051999332914
1000.224492742794
1000.114227034607
1000
1000
1000
1000
1000
1000
1000.170420880355
1046.387223022906
1000.134883851993
1000
1046.387223137881
1000
1000
1000
1000
1000
1000
1032.030865029344
1000
1000
1000
1000
1000.224492735674
1000
1000
1037.837611515655
1000
1028.537426062493
1000
1000
1042.502209768624
1042.502209873137
1037.837611713127
1000
1000
1035.743896735819
1028.537426065438
1000
1032.030865102645
1017.819509741133
1000.000000603784
1000.109934696124
1000
1000
1046.387222969246
1000
1001.25041501878
1000.168705067046
1000
1000
1000.051999332941
1000
1000
1028.537426075275
1035.743896695807
1000.000000603784
1000.170420880641
1017.819509694492
1000
1000.114227034305
1000
1001.250415012738
1000
1037.837611421918
1000.134883852133
1032.030865037929
1000
1000
1032.030865085248
1000
1000.168705065871
1042.502209512711
1000
1000.170420880239
1028.53742603524
1000
1000
1000.000000603784
1000
1000.051999333031
1000
1017.819509724188
1000
1000
1000
1000.109934695346
1001.250415013327
1000
1000
1000.114227034512
1035.743896784634
1000.109934695151
1000
        </DataArray>
        <DataArray type="Float64" Name="density_prev" format="ascii">
1000
1000
998.9829874463334
1000
996.7239739425378
998.9829868666332
1000
1000
1000
1001.799838569005
1000
999.8035103889709
1000.398878112158
1000
998.9418651401545
1003.640163116035
999.6333444453977
998.9418649612386
1000
1000
1000
1001.255575492358
996.8025409359664
999.1021721496356
1003.431629930307
1001.255575900599
1001.901048516725
1000
1000
1000
999.8413534220909
1000
1000
1000
1000
1000
1000
1000
999.2147181312255
999.2147171910372
999.809340751801
1001.901050516667
997.4682471647099
1000
1000
999.8035104836043
999.8093399006004
1003.117395244767
997.1044729155984
997.1044727172192
996.1548564851586
995.9298668431554
1001.799839423656
999.1228053230785
999.1021712415958
996.9206278094065
996.8025408083469
995.9298662065391
1000
1000
1000.398878062551
999.0165371511802
997.2576528903604
999.016536650093
996.1548567007916
1000
1000
997.2576522207785
999.9537366484104
1003.431630026738
996.9206269947406
999.9537364961598
1000.789701709125
1000.789701784058
1003.117394474829
997.4682470535245
1000
1000
1000
996.7239744325005
1000
1000
1000
1000
1000
1000
1000
1000
1000
1000
999.8413532608864
1000
999.5591639265257
1003.640165014779
999.5591639648109
1000
1000
1000
1000
1000
1000
1000
999.6333473570904
1001.159095515766
1001.159095464055
999.5074878044492
1000.68114515848
998.0509569977932
995.0589096287935
995.7503918382911
995.7503930681763
997.3165081916851
994.191003029913
998.5282394485104
1008.318628562055
1000
1000
1000
999.9171987926097
999.9171988608699
998.3557091990597
996.0243463947917