<VTKFile type="PolyData" version="1.0" byte_order="LittleEndian" header_type="UInt64">
  <PolyData>
    <Piece NumberOfPoints="998" NumberOfVerts="998">
      <Points>
        <DataArray type="Float64" Name="Points" NumberOfComponents="3" format="ascii">
0.04449077287975375 0.08073406241220496 0.002742245850966752
0.03672045540348948 0.03672045551931395 0.03241406721332057
0.04449077333431498 0.0892659373481354 0.002742246088850323
0.04180829832436261 0.04180829824362795 0.02291490771767036
0.0352279370399541 0.03522793707067391 0.03387651754404161
0.04046535457540112 0.04046535433099967 0.0258128092762021
0.0387478029818614 0.03874780288610193 0.02934438803906087
0.04157221447627946 0.03211402201850723 0.02801975893154704
0.03211402173973624 0.0415722145650531 0.02801975898784942
0.06001401194162381 0.07215124969587877 0.002264837024449845
0.04384661510323599 0.04384662698773337 0.01924700639528026
0.0270475914424457 0.04034699826341057 0.02799297325628665
0.04912048014036 0.03669234289300976 0.01763915336021874
0.04735268926506706 0.03072635022669879 0.02007502932045589
0.02917585204889966 0.05145288015822426 0.01327117261164757
0.008186842105263157 0.07144473684210526 0.007911538461538463
0.008186842105263157 0.07144473684210526 0.01667307692307693
0.008186842105263157 0.07144473684210526 0.02543461538461539
0.008186842105263157 0.07144473684210526 0.03419615384615385
0.008186842105263157 0.07144473684210526 0.04295769230769231
0.008186842105263157 0.07144473684210526 0.05171923076923078
0.008186842105263157 0.07144473684210526 0.06048076923076924
0.02637292669845881 0.04814877553860485 0.01376850068402222
0.03072635048391108 0.0473526894386744 0.02007502939920805
0.04034699820552011 0.02704759115074591 0.02799297309593435
0.05306606440256387 0.07508452646017373 0.003252269848208408
0.05306606446154712 0.09491547367630788 0.003252269787534331
0.0379240750337817 0.02787418064218097 0.03126257494666371
0.03394149048070126 0.02158659265533101 0.02974208842694651
0.02158659291792238 0.03394149069334129 0.02974208840774385
0.03064568177718208 0.05074457395661511 0.0159649303239788
0.03319477656468384 0.01955362756271991 0.02749733005648495
0.01955362759534342 0.03319477649216369 0.02749733005591264
0.02570596526686275 0.04552875879400379 0.01814600799862884
0.02859501894463277 0.0184006948088516 0.02214026869781106
0.01840069492870628 0.02859501861217843 0.0221402684406081
0.0509930716386985 0.08223628892617933 0.003762549547731264
0.03274967109508129 0.01852990625790542 0.02443788457893107
0.01852990614050484 0.0327496703377792 0.02443788460904833
0.05099307223097343 0.08776371092304544 0.003762549571356483
0.023404696332993 0.04102654527343383 0.0182642113495728
0.008186842105263157 0.008186842105263157 0.007911538461538463
0.008186842105263157 0.01722368421052631 0.007911538461538463
0.008186842105263157 0.02626052631578947 0.007911538461538463
0.008186842105263157 0.03529736842105263 0.007911538461538463
0.02387847897643948 0.02387847889591853 0.03174523818544682
0.008186842105263157 0.008186842105263157 0.01667307692307693
0.008186842105263157 0.01722368421052631 0.01667307692307693
0.008186842105263157 0.02626052631578947 0.01667307692307693
0.008186842105263157 0.03529736842105263 0.01667307692307693
0.008186842105263157 0.008186842105263157 0.02543461538461539
0.008186842105263157 0.01722368421052631 0.02543461538461539
0.008186842105263157 0.02626052631578947 0.02543461538461539
0.008186842105263157 0.03529736842105263 0.02543461538461539
0.008186842105263157 0.008186842105263157 0.03419615384615385
0.008186842105263157 0.01722368421052631 0.03419615384615385
0.008186842105263157 0.02626052631578947 0.03419615384615385
0.008186842105263157 0.03529736842105263 0.03419615384615385
0.008186842105263157 0.008186842105263157 0.04295769230769231
0.008186842105263157 0.01722368421052631 0.04295769230769231
0.008186842105263157 0.02626052631578947 0.04295769230769231
0.008186842105263157 0.03529736842105263 0.04295769230769231
0.008186842105263157 0.008186842105263157 0.05171923076923078
0.008186842105263157 0.01722368421052631 0.05171923076923078
0.008186842105263157 0.02626052631578947 0.05171923076923078
0.008186842105263157 0.03529736842105263 0.05171923076923078
0.04308040063745396 0.04308038666662199 0.01750179004623757
0.008186842105263157 0.008186842105263157 0.06048076923076924
0.008186842105263157 0.01722368421052631 0.06048076923076924
0.008186842105263157 0.02626052631578947 0.06048076923076924
0.008186842105263157 0.03529736842105263 0.06048076923076924
0.04278697450719309 0.02611687876713487 0.02316558737088822
0.03857850025450454 0.0524935871709123 0.01292072952317337
0.01722368421052631 0.008186842105263157 0.007911538461538463
0.02626052631578947 0.008186842105263157 0.007911538461538463
0.02626052631578947 0.008186842105263157 0.03419615384615385
0.01722368421052631 0.008186842105263157 0.04295769230769231
0.02626052631578947 0.008186842105263157 0.04295769230769231
0.01722368421052631 0.008186842105263157 0.05171923076923078
0.02626052631578947 0.008186842105263157 0.05171923076923078
0.02626052631578947 0.008186842105263157 0.01667307692307693
0.01722368421052631 0.008186842105263157 0.06048076923076924
0.02626052631578947 0.008186842105263157 0.06048076923076924
0.01722368421052631 0.008186842105263157 0.03419615384615385
0.03153278363328965 0.031532783638715 0.001188924337739432
0.01722368421052631 0.008186842105263157 0.02543461538461539
0.01722368421052631 0.008186842105263157 0.01667307692307693
0.02626052631578947 0.008186842105263157 0.02543461538461539
0.04433421052631578 0.008186842105263157 0.07800384615384616
0.04433421052631578 0.008186842105263157 0.0692423076923077
0.0323265039399877 0.02646644466655053 0.01318000593418343
0.0264664443850965 0.03232650374089063 0.01318000615919651
0.02611687900973265 0.04278697467261013 0.02316558747946382
0.02723025796889202 0.04706543261773022 0.009088467071278724
0.02857921734998446 0.0497517326080584 0.007172014287759333
0.09491547365565701 0.05306606470707766 0.003252270089838162
0.08951842105263157 0.008186842105263157 0.03419615384615385
0.09855526315789473 0.008186842105263157 0.03419615384615385
0.09784875030808333 0.06001401211282872 0.002264837033650649
0.09855526315789473 0.008186842105263157 0.02543461538461539
0.08951842105263157 0.008186842105263157 0.02543461538461539
0.09855526315789473 0.008186842105263157 0.01667307692307693
0.08951842105263157 0.008186842105263157 0.01667307692307693
0.09855526315789473 0.008186842105263157 0.007911538461538463
0.08951842105263157 0.008186842105263157 0.007911538461538463
0.09855526315789473 0.008186842105263157 0.07800384615384616
0.08951842105263157 0.008186842105263157 0.07800384615384616
0.09855526315789473 0.008186842105263157 0.0692423076923077
0.08951842105263157 0.008186842105263157 0.0692423076923077
0.09855526315789473 0.008186842105263157 0.06048076923076924
0.08951842105263157 0.008186842105263157 0.06048076923076924
0.09855526315789473 0.008186842105263157 0.05171923076923078
0.08951842105263157 0.008186842105263157 0.05171923076923078
0.09855526315789473 0.008186842105263157 0.04295769230769231
0.08951842105263157 0.008186842105263157 0.04295769230769231
0.02536757519671834 0.04377515318488499 0.01289712290096669
0.08926593765517436 0.04449077350490239 0.002742246074512034
0.08776371101308715 0.05099307221811904 0.00376254963210598
0.02144293173034105 0.02144293171042832 0.02002390827642505
0.03529736842105263 0.008186842105263157 0.0692423076923077
0.03529736842105263 0.008186842105263157 0.07800384615384616
0.02304109649585006 0.02304109640358382 0.01742526186144101
0.03201004297808248 0.03528175669594991 0.005564900003266862
0.03528175662334248 0.032010043115696 0.005564899871409114
0.07215124977687593 0.06001401198318333 0.002264836883836541
0.06166001098479409 0.06166001105887918 0.005817802838626936
0.05200082469089576 0.05650950145520374 0.003057414592277509
0.05623774036909244 0.05623774014051051 0.002634753370864819
0.07508452632907005 0.05306606446763051 0.003252270013129638
0.08223628891478002 0.05099307204623635 0.003762549639939938
0.04814877583546799 0.02637292672260948 0.01376850067368481
0.05337605732341091 0.05337605765697444 0.006947609137699784
0.05751799559269859 0.04859827534270673 0.0009692917256645842
0.05650950187518242 0.0520008244008199 0.003057414296146768
0.05260866755203905 0.02974957870831801 0.006954380576145516
0.08073406242162556 0.04449077332946184 0.002742246165398107
0.07144473684210526 0.008186842105263157 0.01667307692307693
0.06240789473684209 0.008186842105263157 0.01667307692307693
0.05337105263157894 0.008186842105263157 0.01667307692307693
0.04433421052631578 0.008186842105263157 0.01667307692307693
0.03529736842105263 0.008186842105263157 0.01667307692307693
0.05464004839659267 0.04005261004991036 0.009182985735038236
0.03529736842105263 0.008186842105263157 0.02543461538461539
0.04433421052631578 0.008186842105263157 0.02543461538461539
0.05337105263157894 0.008186842105263157 0.02543461538461539
0.06240789473684209 0.008186842105263157 0.02543461538461539
0.07144473684210526 0.008186842105263157 0.02543461538461539
0.08048157894736842 0.008186842105263157 0.07800384615384616
0.07144473684210526 0.008186842105263157 0.07800384615384616
0.08048157894736842 0.008186842105263157 0.0692423076923077
0.07144473684210526 0.008186842105263157 0.0692423076923077
0.08048157894736842 0.008186842105263157 0.06048076923076924
0.07144473684210526 0.008186842105263157 0.06048076923076924
0.06240789473684209 0.008186842105263157 0.06048076923076924
0.05337105263157894 0.008186842105263157 0.06048076923076924
0.04433421052631578 0.008186842105263157 0.06048076923076924
0.08048157894736842 0.008186842105263157 0.05171923076923078
0.07144473684210526 0.008186842105263157 0.05171923076923078
0.06240789473684209 0.008186842105263157 0.05171923076923078
0.05337105263157894 0.008186842105263157 0.05171923076923078
[...]
      <PointData>
        <DataArray type="UInt64" Name="type" format="ascii">
1
1
1
1
1
1
1
1
1
1
1
1
1
1
1
0
0
0
0
0
0
0
1
1
1
1
1
1
1
1
1
1
1
1
1
1
1
1
1
1
1
0
0
0
0
1
0
0
0
0
0
0
0
0
0
0
0
0
0
0
0
0
0
0
0
0
1
0
0
0
0
1
1
0
0
0
0
0
0
0
0
0
0
0
1
0
0
0
0
0
1
1
1
1
1
1
0
0
1
0
0
0
0
0
0
0
0
0
0
0
0
0
0
0
0
1
1
1
1
0
0
1
1
1
1
1
1
1
1
1
1
1
1
1
1
1
0
0
0
0
0
1
0
0
0
0
0
0
0
0
0
0
0
0
0
0
0
0
0
0
0
0
0
0
0
0
0
0
0
0
0
1
0
0
0
0
0
0
1
0
0
0
0
0
0
0
1
1
1
1
1
1
1
0
0
1
1
1
1
1
1
1
1
1
0
1
1
1
1
1
1
1
1
0
0
0
0
0
0
0
0
0
0
0
0
1
1
1
1
0
0
0
0
0
0
0
0
0
1
1
1
1
1
1
1
1
1
0
1
1
1
0
0
0
0
1
0
1
1
0
1
0
1
1
0
0
0
1
0
0
0
1
1
0
1
0
0
0
0
1
0
0
0
1
0
0
1
0
1
0
0
0
1
0
0
0
1
0
0
0
0
0
1
0
0
0
0
0
1
1
1
1
1
1
1
0
0
1
0
0
0
0
0
0
0
0
0
1
0
1
0
0
0
1
1
0
1
0
0
1
0
0
1
0
0
0
1
0
1
0
0
0
0
0
0
0
0
0
1
0
0
0
0
0
0
0
0
0
0
0
0
0
1
0
0
1
1
0
0
0
0
0
0
0
0
0
0
0
0
1
1
1
0
1
1
0
0
1
0
0
0
1
1
0
0
1
1
1
0
0
1
0
1
0
0
0
1
1
0
0
0
1
0
0
0
0
1
1
0
0
0
1
0
0
0
0
0
1
0
0
0
0
0
1
1
1
1
1
1
1
1
0
0
0
0
0
1
0
0
1
0
0
0
0
0
0
0
0
0
0
0
0
0
0
0
0
0
0
0
0
0
0
0
1
0
1
1
0
0
0
0
1
0
0
1
0
1
1
0
0
0
1
1
0
1
1
1
1
0
0
0
0
0
0
0
0
0
0
1
0
0
1
1
1
1
1
1
1
1
1
1
1
1
1
1
1
1
0
0
0
0
0
0
0
0
0
1
1
1
1
1
1
1
1
1
1
1
1
1
1
1
1
1
1
1
1
0
0
0
0
0
1
0
0
0
0
0
1
0
0
0
0
0
0
0
0
0
0
0
0
0
0
0
0
0
0
0
0
0
0
0
0
0
1
1
1
1
0
0
0
0
1
1
1
1
1
1
1
1
1
1
1
1
1
1
1
1
1
1
1
1
1
0
0
0
0
1
0
0
1
0
0
0
1
1
1
1
1
1
1
1
1
1
1
1
1
0
1
0
0
0
0
0
0
0
0
0
0
0
0
0
0
0
0
0
1
0
0
0
0
0
0
0
0
0
0
0
0
0
0
0
0
0
0
0
0
0
0
0
0
0
0
0
0
0
0
0
0
0
0
0
0
0
0
0
0
0
0
0
0
0
0
0
0
0
0
0
0
0
0
0
0
0
0
0
0
0
0
0
0
0
0
0
0
0
0
0
0
0
0
0
0
0
0
0
0
0
0
0
0
0
0
0
0
0
0
0
0
0
0
0
0
0
0
0
0
0
0
0
0
0
0
0
0
0
0
0
0
0
0
0
0
0
0
0
0
0
0
0
0
0
0
0
0
0
0
0
0
0
0
0
0
0
0
0
0
0
0
0
0
0
0
0
0
0
0
0
0
0
0
0
0
0
0
0
0
0
0
0
0
0
0
0
0
0
0
0
0
0
0
0
0
0
0
0
0
0
0
0
0
0
0
0
0
0
0
0
0
0
0
0
0
0
0
0
0
0
0
0
0
0
0
0
0
0
0
0
0
0
0
0
0
0
0
0
0
0
0
0
0
0
0
0
0
0
0
0
0
0
0
0
0
0
0
0
0
0
0
0
0
0
0
0
0
0
0
0
0
0
0
0
0
0
0
0
0
0
0
0
0
0
0
0
0
0
0
0
0
0
0
0
0
0
0
0
0
0
0
0
0
0
0
0
0
0
0
0
0
0
0
0
0
0
0
0
0
0
0
0
0
0
0
0
0
0
0
0
0
0
0
0
0
0
0
0
0
0
0
        </DataArray>
        <DataArray type="Float64" Name="density" format="ascii">
1000.306866727366
999.7900928159933
1000.306867663029
1000.876422722216
1000.069294221815
999.9945121768311
999.3571846577303
999.0843422005895
999.0843431337186
996.7596344547743
999.9705372524295
998.9988690122996
1000.698028650985
1000.597158043134
998.8767751626176
1000.002969197717
1000.000078210887
1000
1000
1000
1000
1000
999.4810818856946
1000.597156620606
998.9988675560561
1002.740773827385
1002.740774239565
1000.452275574904
1000.253460761562
1000.253462680614
996.7022370236587
999.2509007716731
999.2508995171329
995.6822507283297
1000.117843464536
1000.117843428918
997.5359703906279
999.8284530501643
999.8284536940164
997.5359711084946
1001.86253224752
1000.474263451921
1000.836794061963
1001.099941675868
1014.360594354636
1000.153774961154
1000
1000
1000.862077382904
1000
1000
1000
1000
1000
1000
1000
1000
1000
1000
1000
1000
1000
1000
1000
1000
1000
1001.71321649857
1000
1000
1000
1000
999.5656922547988
1000.697289588841
1000.836793984444
1001.099941578916
1000
1000
1000
1000
1000
1000.862077781255
1000
1000
1000
997.5446902297456
1000
1000
1000
1000
1000
996.4564925371528
996.4564918384533
999.5656911095883
1000.994607668807
1002.14045058938
1002.740774785762
1000
1000
996.7596346921035
1000
1000
1000.000078211212
1000
1000.002969198398
1000
1000
1000
1000
1000
1000
1000
1000
1000
1000
1000
1000.496333082329
1000.306867241732
997.5359711963957
999.1338718998066
1000
1000
998.195467821718
1000.574419891156
1000.574421165121
996.7596343549772
1003.841293054197
999.3435597080938
999.5543857211749
1002.74077434165
997.5359711934277
999.4810808365579
997.353717491545
999.4222667376524
999.3435609081324
999.9222952151431
1000.306867090742
1000.000078210831
1000
1000
1000
1000
1000.557705000859
1000
1000
1000
1000
1000
1000
1000
1000
1000
1000
1000
1000
1000
1000
1000
1000
1000
1000
1000
1000
1000
1000
1000
1000
1000
1000
1000
1000
1000.002969198353
1000.458227193178
1001.1333655594
1000
1002.559015354982
1014.360593998375
1000
1000
999.9168707578817
1000
1000
1000
1000
1000
1000
1000
996.0955226070112
1002.140449319141
1003.041719385193
996.2822550050427
1000.496333613703
1000.994607195703
996.8455756360626
1000
1000
1001.007632794102
1000.704592903471
998.8767764532217
1000.697291633088
1001.862532285874
995.6822529066555
996.7022390658907
999.4222670121241
998.7695329600936
1000
997.6475557210118
997.6475557517958
1000.45227643548
1000.69802840488
1007.474006759686
999.9222967380987
1001.961082420221
1000.557702769836
1000
1000
1000
1000
1000
1000
1000
1000
1000
1000
1000
1000
999.9168710423162
1000.704594288509
996.2822568829386
996.0955225826182
1002.559014560036
1000
1001.133365358638
1000
1000
1000
1000
1000
1000
1000.557704358356
1007.473991199968
997.6475631656859
997.6475640195595
996.8455738996079
999.9222958907764
1000.57442074466
1000.57442008211
996.4564934691264
1000
996.4564944354106
999.3571843567819
999.9945123779722
1000
1000
1000
1000
999.554386012975
1000
999.3435614213859
999.7900928478002
1000
1000.458224745559
1000
1001.717201682488
1000.876423136898
1000
1000
1000
999.0843432950653
1000
1000
1000
1000.697291768363
1000.452276277332
1000
1001.165149158683
1000
1000
1000
1000
1000.452276800703
1000
1000.862078024142
1000
999.4810823175467
1000
1014.360595214076
1000.597156921703
1001.099940910742
1000.597156074237
1000.836792988188
1000.474263242305
1000
997.3537180879634
1000
1000
1000
1000.391667838063
1000
1000
1000
1000
1000
999.9168710299851
1000
1000
1000
1000
1000
1000.698027047071
998.1954752948342
998.7695297228145
996.7022376710927
997.5446861159563
1000.306867129433
998.9988693721398
1000
1000
1000.391668495118
1000
1000
1000
1000
1000
1000
1000
1000
1014.360595632882
997.5359703450479
1001.099940968871
997.5359702416484
1000
1000
1000
999.0843427862555
1000.697288683095
1000
1001.713217054166
1000
1000.862077878801
1000.069294382372
1000
1000
1002.74077362733
1000
1000
1000
1000.698029029797
1000
1000.737716902648
1000
1000
1000
1000
1000
1000
1000
1000
1000
999.9705363670655
1000
1000
1000
1000
1000
1000
1000
1000
1000
1000
1000
1000
1000
996.7596347889397
1000
1000
1001.961081421301
998.9988687294586
1000
1000
1000
1000
1000
1000
1000
1000
1000
1000
1000.836792976098
1000
1003.841291789971
999.9168707944453
996.7022387888627
1000
999.1338732318372
1000.557704552753
1000
1000
1003.041719188766
1000
1000
1000
999.4222663863384
999.9222964278596
1000
1000
1000.117842415627
1000.117842391148
1000.153772942445
1000
1000
1001.862535467075
1000
1000.496334531521
1002.559015855079
1000
1001.133366104706
1000.496335184712
1000.994608111515
1000
1000
1000
1000.994607457267
1000
1000
1000
1000
999.2508999119507
999.3435590257475
1000
1000
1000
999.250900843738
1000
1000
1000
1000
1000
1002.140450219901
1000
1000
1000
1000
1000
1002.140450025811
999.8284527357182
999.8284521868205
1002.86133882856
1000.306867188144
1001.007630751783
1001.862534964702
995.6822542212984
1000
1000
1001.133366374781
1000
1002.55901594198
995.6822552167615
1000
1000
999.4810829318208
1000
1000
1000
1000
1000
1000
1000
1000
1000
1000
1000
1000
1000
1000
1000
1000
1000
1000
1000
1000
1000
1000
1000
1000.70459297046
1000.000078211526
996.2822555302808
1000.704594788165
1000.002969204592
1000
1000
1000
996.0955220446485
1000
1000
996.095522225105
1000
996.2822540127002
999.4222653156438
1000
1000
1000
998.8767746871094
998.8767754549976
1000
1000.253459863383
1000.253460055744
999.5656919225944
999.5656911153141
1000
1000
1000
1000
1000
1000
1000
1000
1000.000078210754
1000.002969197438
1002.740773968538
1000
1000
1000.737716489175
1002.861337484383
1001.717200478064
1001.165148435998
1000.458224810296
1000.452276436736
1000.697291129217
1003.841291618108
999.9168706673554
996.7596351503779
999.3435605224118
1000.557705807383
998.9988692173403
997.353718205101
999.9168712541255
999.4222674761322
1000
1000
1000
1000
1000
1000
1000
1000
1014.360594023624
999.084343269132
1002.74077408787
997.5359714663497
997.5359703649332
1003.041719368681
1000.574419797091
1002.740774674569
1001.007630623125
999.5543859367874
1000.496332714448
995.6822563732219
999.5656913540246
1001.86253151221
995.6822499363444
999.9945121787539
1001.961081536514
999.9705379334494
1000.698029859981
1000.698029401085
1000.876422400519
1000
1000
1000
1000
1000
1001.713216110866
1000
1000
1000
1000
1000
996.7596345484874
1000
1000
1000
1000
1000
1000
1000
1000
1000
1000
1000.002969204615
1000.000078211485
1000
1000
1000
1000
1000
1000
1000
1000
1000
1000
1000
1000
1000
999.9222949586662
1000.597157813535
1000.704593394715
996.2822537926241
1001.133366478826
1000
1000
1000
998.8767757382566
1000.994608169536
996.7022396701798
999.422264469539
999.3435599228508
1002.140449195301
999.4810827241353
996.095522426966
1002.140450449114
1001.961083247435
999.481081827887
999.9168711156157
1000.697288979316
996.7022371077866
999.4222672293553
1000.557702802861
999.4222672585721
999.9168707781132
1000.994607469251
1003.841293773851
999.3435595695721
1000
1000
1002.55901440814
1000
999.3435615727795
1000
1000
999.3571847631843
1000
1000
1000
999.7900928192322
996.7596340528169
1001.007633080322
996.2822576426713
996.0955230961854
999.5543854816603
999.9222968083089
1000.698027599738
997.3537175437797
1000.458227809465
1000.069294143967
1000.704594318395
998.8767752479453
1000
996.7596342635831
1001.133365249776
1000
1000
1000
1000
1000
1000
1000
1000
1000
1000
1000
1000
1000
1000
1000
1000
1000.597156511932
1000
1000
1000
1000
1000
1000
1000
1000
1000
1000
1000
1000
1000
1000
1000
1000
1000
1000
1000
1000
1000
1000
1000
1000
1000
1000
1000
1000
1000
1000
1000
1000
1000
1000
1000
1000
1000
1000
1000
1000
1000
1000
1000
1000
1000
1000
1000
1000
1000
1000
1000
1000
1000
1000
1000
1000
1000
1000
1000
1000
1000
1000
1000
1000
1000
1000
1000
1000
1000
1000
1000
1000
1000
1000
1000
1000
1000
1000
1000
1000
1000
1000
1000
1000
1000
1000
1000
1000
1000
1000
1000
1000
1000
1000
1000
1000
1000
1000
1000
1000
1000
1000
1000
1000
1000
1000
1000
1000
1000
1000
1000
1000
1000
1000
1000
1000
1000
1000
1000
1000
1000
1000
1000
1000
1000
1000
1000
1000
1000
1000
1000
1000
1000
1000
1000
1000
1000
1000
1000
1000
1000
1000
1000
1000
1000
1000
1000
1000
1000
1000
1043.569128074452
1038.296419077941
1036.345079346032
1028.813655726492
1032.563025149547
1017.980738434624
1000.245996891278
1001.242889267556
1000
1038.296418974389
1000
1000.000000603784
1000.170809015983
1000.000000603784
1000.136321363776
1000
1000.051999332969
1000
1043.569128025051
1017.980738420828
1000.17080901659
1000.109934694971
1000.136321364018
1017.980738317633
1032.563025145048
1000
1000
1000
1000.170420880325
1000.170420880517
1000
1036.345079378476
1000
1001.242889268506
1000.170420880552
1000.051999332943
1000.114227034475
1000.109934695384
1000.114227034227
1036.345079333532
1000.109934695633
1028.813655783665
1000.051999332846
1000.17080901672
1000
1000.114227034887
1000
1000.136321363798
1000.051999332914
1000.24599689427
1000.114227034607
1000
1000.170420880355
1048.888311820372
1000.13632136498
1000
1048.888311951898
1000
1000
1000
1000
1048.888311960856
1032.563025124782
1000
1000
1038.296418985349
1000
1000.245996872244
1000
1028.813655739003
1000
1043.569128177576
1001.242889267819
1000.000000603784
1000
1043.569128355643
1000
1038.296419185461
1000
1000
1036.345079376027
1028.813655834035
1000
1000
1032.563025163078
1017.98073836236
1000.000000603784
1000.109934696124
1000
1000
1000
1001.24288927129
1000
1000
1000.170809018648
1000.136321364412
1000.170420880295
1000.114227035067
1048.888312107889
1000.245996885231
1000.051999332948
1000
1000
1000
1038.296419150967
1000.170809016434
1032.563025123388
1043.569128097458
1000
1036.345079431214
1000
1043.569127918907
1000.170809015067
1000
1028.813655862794
1000.136321363125
1038.296418853213
1000
1000.245996886311
1000
1000
1000.245996870868
1000
1048.88831195736
1048.888311903447
1000
1000
1000
1000
1000
1000
1000
1000
1000
1000
1000
1000
1000
1000
1000
1000
1000
1000
1000
1000
1000
1000
1000
1000
1000
1000
1000
1000
1000
1000
1000
1000
1000
1000
1000
1000
1000
1000
1000
1000
1000
1000
1000
1000
1000
1000
1000
        </DataArray>
        <DataArray type="Float64" Name="density_prev" format="ascii">
1000.183668291747
999.8029106348897
1000.18366921233
1000.793819314731
1000.196069717529
1000.015064900638
999.2199866268481
999.0916797743697
999.0916806957071
996.9306860507274
1000.097270906214
999.0594675242654
1000.62731181539
1000.401204392557
999.0044956982398
1000.00291029524
1000.000079932361
1000
1000
1000
1000
1000
999.8160238715981
1000.401202924373
999.0594660745529
1002.548759621783
1002.548760048396
1000.602044894993
1000.139737435476
1000.139739550672
996.6485226872583
999.2869016617009
999.2869007111502
995.9230552975218
1000.087464557203
1000.087464646248
997.3563995085542
999.7501420693982
999.750142887503
997.3564002315234
1001.843711671771
1000.46572005688
1000.805324241281
1001.055233547386
1014.353346157919
999.9172635997691
1000
1000
1000.87986264028
1000
1000
1000
1000
1000
1000
1000
1000
1000
1000
1000
1000
1000
1000
1000
1000
1000
1001.579627497687
1000
1000
1000
1000
999.6370860560213
1000.789090859211
1000.805324161715
1001.055233443146
1000
1000
1000
1000
1000
1000.879863007601
1000
1000
1000
997.5243955871597
1000
1000
1000
1000
1000
996.7493900236406
996.749389568472
999.6370852370327
1000.820396593343
1002.220401929899
1002.548760579042
1000
1000
996.9306862552282
1000
1000
1000.000079932684
1000
1000.002910295912
1000
1000
1000
1000
1000
1000
1000
1000
1000
1000
1000
1000.427801719539
1000.183668812339
997.3564003215466
999.1256184098803
1000
1000
998.322260481957
1000.623470066666
1000.623471189304
996.930685933606
1003.591157940061
999.2464777681738
999.5724806823708
1002.548760125003
997.3564003089439
999.8160229190677
997.2573563862937
999.4789237245867
999.2464789909864
1000.107062308212
1000.183668653626
1000.000079932301
1000
1000
1000
1000
1000.604059255936
1000
1000
1000
1000
1000
1000
1000
1000
1000
1000
1000
1000
1000
1000
1000
1000
1000
1000
1000
1000
1000
1000
1000
1000
1000
1000
1000
1000
1000.002910295879
1000.284214960734
1001.137232254379
1000
1002.633368851776
1014.353345788246
1000
1000
999.7695720854076
1000
1000
1000
1000
1000
1000
1000
996.7756864470546
1002.220400818504
1002.881783558817
996.8641689658214
1000.42780218281
1000.820396244745
996.7313571449354
1000
1000
1000.790014910368
1000.469544630841
999.0044971157802
1000.789093071134
1001.843711578638
995.9230574177599
996.6485247282019
999.4789239927484
998.9123190899066
1000
997.8944438046707
997.8944436220464
1000.602045789502
1000.627311404378
1007.149117741491
1000.107063621111
1002.085732189591
1000.604056953186
1000
1000
1000
1000
1000
1000
1000
1000
1000
1000
1000
1000
999.7695722869512
1000.469546082536
996.8641707725785
996.7756864102828
1002.633368076322
1000
1001.137232055118
1000
1000
1000
1000
1000
1000
1000.604058508356
1007.149100285756
997.8944512140607
997.8944519102766
996.7313556094878
1000.10706294603
1000.623470698463
1000.623470173286
996.7493919861635
1000
996.7493927700277
999.2199864287321
1000.015065224392
1000
1000
1000
1000
999.5724809794154
1000
999.2464795379217
999.8029107398659
1000
1000.284212500805
1000
1001.949666344117
1000.793819705047
1000
1000
1000
999.0916810165962
1000
1000
1000
1000.78909314963
1000.602045746358
1000
1001.400648983572
1000
1000
1000
1000
1000.602046253323
1000
1000.879863375486
1000
999.8160243538759
1000
1014.353347020159
1000.401203187428
1001.055232789842
1000.401202431706
1000.805323186667
1000.465719852852
1000
997.257357059353
1000
1000
1000
1000.577449171269
1000
1000
1000
1000
1000
999.7695722226713
1000
1000
1000
1000
1000
1000.627310071331
998.3222683486014
998.9123152596483
996.6485231676179
997.524391417723
1000.18366865888
999.0594681201214
1000
1000
1000.577449858076
1000
1000
1000
1000
1000
1000
1000
1000
1014.353347426057
997.3563994360404
1001.055232838729
997.3563993422829
1000
1000
1000
999.0916805638354
1000.789090039386
1000
1001.579627913254
1000
1000.879863216662
1000.196069940714
1000
1000
1002.548759446783
1000
1000
1000
1000.627312078625
1000
1000.819318999739
1000
1000
1000
1000
1000
1000
1000
1000
1000
1000.097270060247
1000
1000
1000
1000
1000
1000
1000
1000
1000
1000
1000
1000
1000
996.9306864003163
1000
1000
1002.085731245234
999.0594675176618
1000
1000
1000
1000
1000
1000
1000
1000
1000
1000
1000.805323172458
1000
1003.591156434692
999.7695721179869
996.6485244224236
1000
999.125619455683
1000.604058806662
1000
1000
1002.881783272512
1000
1000
1000
999.4789234725705
1000.107063331339
1000
1000
1000.087463292776
1000.087463354385
999.9172613960263
1000
1000
1001.843714504781
1000
1000.427803068401
1002.633369365601
1000
1001.137232797764
1000.427803592558
1000.820397049523
1000
1000
1000
1000.820396437868
1000
1000
1000
1000
999.2869012375394
999.2464770761678
1000
1000
1000
999.2869019726982
1000
1000
1000
1000
1000
1002.220401595977
1000
1000
1000
1000
1000
1002.220401469303
999.7501419307068
999.7501412391587
1002.612772143064
1000.183668718813
1000.790012946159
1001.843714153708
995.9230590581503
1000
1000
1001.137233074722
1000
1002.633369477931
995.9230599003248
1000
1000
999.8160249735554
1000
1000
1000
1000
1000
1000
1000
1000
1000
1000
1000
1000
1000
1000
1000
1000
1000
1000
1000
1000
1000
1000
1000
1000.469544731633
1000.000079933008
996.8641691359487
1000.469546624189
1000.002910302018
1000
1000
1000
996.7756859169949
1000
1000
996.7756859832161
1000
996.8641679275496
999.4789221572834
1000
1000
1000
999.0044953850686
999.0044959648043
1000
1000.139736795082
1000.139736877964
999.6370858290155
999.6370852577785
1000
1000
1000
1000
1000
1000
1000
1000
1000.000079932227
1000.002910294968
1002.548759768587
1000
1000
1000.819318540564
1002.612770860426
1001.949665085081
1001.40064827357
1000.411152299976
1000.166902757044
1000
1000
1000
1000
1000
1000
1000
1000
1000
1000
1000
1000
1000
1000
1000
1035.587704915772
1000
1000
1000
1000
1000
1000
1000
1031.766841174307
1000
1017.617232642296
1000
1000
1000
1000
1036.929038422327
1000
1017.61723267037
1000
1000
1000
1000
1000
1000
1000
1000
1000
1001.248942963325
1000
1000
1000
1000
1000
1000
1000
1000
1000
1000
1000.170420880506
1000
1000
1000
1000
1000
1000
1000
1000
1000
1000
1000
1000
1000
1000
1000
1000
1000
1000
1000
1000
1000
1000
1000.051999332948
1000
1000.109934695346
1000
1000
1000
1000
1000
1000
1000
1000
1000
1000
1000
1000
1000
1000
1000
1000
1000
1000
1000
1000
1000
1000
1000
1000
1000
1000
1000
1000
1000
1000
1001.248942959272
1000
1000
1000
1000
1000
1000
1000
1000
1000
1000
1000
1000
1000
1000
1000
1000
1000
1000
1000
1000.148804905298
1000
1000
1000
1000
1000
1000
1000
1000
1000
1000
1000
1000
1000
1000
1000
1000.114227035067
1000
1000
1000
1000
1000
1000
1000
1000
1000
1000.114227034512
1000
1035.587704947599
1000
1000
1000
1040.099096662936
1000
1000
1000
1000
1000
1000
1000
1000
1000
1000
1000
1000.109934695151
1000
1000
1000
1000
1000
1000
1000.170420880295
1000.134882543158
1036.929038376913
1000
1000
1000
1000
1000
1000
1000
1000
1000
1000
1000
1000
1000
1000
1000
1000
1000
1000
1000
1000
1000
1000
1000
1000
1000
1000
1000
1000
1000
1000
1000
1000
1000
1000
1000
1000
1000
1000
1000
1000
1000
1000
1000
1000
1000
1000
1000
1000
1000
1000
1000
997.2274971804466
999.3223923130389
1000
1000
1000
1000.295508500046
1003.90185563035
998.8881540027539
1000
1000
1000
1000
1000
1000
1000
1000
1000
1000
1000
999.5468430409942
999.9223714485854
1000
1000
1000
1000.293358961562
998.3188160725734
998.3188150137677
0
0
0
0
0
0
0
0
0
0
0
0
0
0
0
0
0
0
0
0
0
0
0
0
0
0
0
0
0
0
0
0
0
0
0
0
0
0
0
0
0
0
0
0
0
0
0
0
0
0
0
0
0
0
0
0
0
0
0
0
0
0
0
0
0
0
0
0
0
0
0
0
0
0
0
0
0
0
0
0
0
0
0
0
0
0
0
0
0
0
0
0
0
0
0
0
0
0
0
0
0
0
0
0
0
0
0
0
0
0
0
0
0
0
0
0
0
0
0
0
0
0
0
0
0
0
0
0
0
0
0
0
0
0
0
0
0
0
0
0
0
0
0
0
0
0
0
0
0
0
0
0
0
0
0
0
0
0
0
0
0
0
0
0
0
0
0
0
0
0
0
0
0
0
0
0
0
0