<VTKFile type="PolyData" version="1.0" byte_order="LittleEndian" header_type="UInt64">
  <PolyData>
    <Piece NumberOfPoints="2178" NumberOfVerts="2178">
      <Points>
        <DataArray type="Float64" Name="Points" NumberOfComponents="3" format="ascii">
0.07262287433647494 0.06417665093689293 0.0545494504264518
0.0604364766628116 0.1316082388059902 0.03552219494719834
0.05441125587861503 0.1056591223208242 0.01905669794221352
0.06434087767064718 0.115588744109107 0.01905669792954989
0.04044321870100871 0.1018409141999385 0.03023191584839533
0.04896050459205309 0.06411883882635286 0.06510308388129755
0.04831079713059223 0.121689202878577 0.02815676868923831
0.0386653487015779 0.118395667399679 0.03269807815899595
0.05160433258491549 0.1313346513008064 0.0326980781689305
0.06224883521186041 0.1475968114054795 0.04138438284456888
0.02240318861198363 0.1077511647839682 0.0413843828236178
0.06972751273129771 0.1170156186357617 0.01366491437399449
0.05298438133669687 0.1002724872559339 0.01366491436460051
0.07415350008572724 0.06675635009265617 0.01581688358021576
0.04820707152090514 0.06553287464104839 0.04197214499602078
0.03761950644766176 0.06335868941350932 0.01264592630377345
0.04519203068316287 0.1498008945848557 0.04755744981378486
0.02019910541732419 0.1248079693174384 0.04755744982112545
0.03302174657005956 0.1277736451648575 0.04017971864690241
0.04222635483891484 0.1369782534397508 0.04017971865250886
0.05930924802342747 0.1106907519748662 0.01675550289346225
0.04784711846297534 0.08098174102880278 0.00848027162900966
0.04784711843188243 0.08901825900561917 0.008480271662407141
0.05117220420308775 0.06499937462460564 0.06038541840398685
0.07537299272807277 0.1189632630120591 0.009114444454475019
0.07370942087186702 0.1261102680554914 0.02605569734877671
0.04388973195007986 0.09629057911586847 0.02605569732417658
0.05103673695194016 0.09462700728935379 0.009114444445605777
0.02217655272082589 0.06394600700891895 0.01897441054796135
0.05073548145969334 0.07444719874648699 0.02161499272503797
0.07245183266096746 0.06980055889663564 0.06654793226814443
0.05103673700572393 0.07537299271718773 0.009114444468152313
0.02702597120993287 0.06266190327698953 0.01435605149396196
0.03970439669978321 0.06829493632975925 0.05054220076736328
0.03533283098089944 0.1497965811571861 0.05255103199421403
0.02020341884180644 0.1346671690108779 0.05255103198660242
0.04369312043541945 0.08891748095597352 0.02398396652583188
0.06555879400554912 0.1107683199385256 0.01249054867077422
0.05923168005536953 0.1044412059785899 0.01249054868012664
0.03036914329131899 0.06531932649909701 0.06045717768187279
0.04369312042094307 0.08108251908387884 0.02398396654647506
0.07235508485784815 0.1473508145499581 0.03802785351098777
0.0226491854351292 0.09764491514074812 0.03802785350858322
0.02741194203985764 0.07440787084110453 0.04724053763873472
0.02419008962751343 0.07234429122927612 0.04068713074209562
0.03155932743121138 0.07690240655539372 0.003132665193121577
0.03155932809178038 0.09309759325660079 0.003132664273599256
0.03257034529555736 0.1310050077188883 0.0325827484348671
0.03899499228374238 0.1374296547053747 0.0325827484234897
0.02819104024088563 0.07397592460202809 0.05269937264028434
0.03402361034549757 0.07268704546790349 0.03804215875407212
0.03615104143095121 0.1226090656694753 0.007080543687843435
0.008186842105263157 0.07144473684210526 0.1042884615384616
0.008186842105263157 0.07144473684210526 0.09552692307692309
0.008186842105263157 0.07144473684210526 0.08676538461538462
0.06951629748840556 0.07672381512284561 0.05551032722559234
0.04920430527433935 0.07149236151225467 0.06068597501922615
0.02868918018234112 0.07361377582154845 0.0575160580526519
0.03161519835158693 0.06671378926715736 0.06405806797257409
0.05888558212005613 0.1320949815866342 0.03186883869713657
0.03790501840025602 0.1111144178828257 0.03186883870147038
0.06753950074371867 0.06753950074313995 0.02823601417834665
0.01919495606252088 0.1234933817339868 0.02264778130685001
0.03797717087352599 0.1217805110897312 0.02997786543698892
0.04566582760724439 0.1243341724084199 0.0117365990035968
0.02524048537343622 0.09858698600679237 0.01624081163983503
0.03335750968903881 0.06699278324791744 0.06652666089921916
0.0679032900891187 0.1389654793794885 0.00836826514876461
0.03023130751383884 0.1397686924890391 0.04600881685706713
0.08053083642457756 0.1469464926431593 0.03689269469761412
0.02305350735441353 0.08946916356432374 0.03689269468781923
0.02305350736294828 0.08053083642607742 0.03689269469191912
0.0529477300872125 0.07204388056712061 0.04453967595581181
0.08155576296437915 0.1409509011618146 0.006324980025847512
0.05385770788743994 0.1517310726586856 0.03735765931806433
0.04553664986541629 0.1521077388926922 0.04352231380338341
0.05762374734502842 0.1270180252896251 0.01933934254505212
0.06468810720466014 0.06832278002376085 0.03883770248455141
0.05370495060139754 0.1204204764625682 0.01554534261179269
0.04957952355450936 0.1162950494002623 0.01554534262168119
0.05319102442157102 0.06835638305119887 0.02895950600441181
0.0655541292600029 0.1320605395463741 0.02617473642635875
0.03793946043654206 0.1044458707406299 0.02617473640831533
0.06675635009555347 0.07415350008904599 0.01581688357911048
0.07130875809968767 0.1116693535484394 0.006568953813639564
0.05833064645586094 0.09869124187983927 0.006568953824548205
0.0368846786541569 0.06865235325148214 0.06883576512057674
0.03725177490709719 0.07543175381750312 0.06670474671761203
0.0653254610220812 0.0771900726516903 0.03651621639291781
0.07710410728636186 0.1127301866796435 0.006794321493309917
0.05726981333566762 0.09289589271199089 0.006794321493065664
0.05374365616318847 0.1503887643251578 0.04299565053843313
0.01961123569427893 0.1162563438436601 0.04299565051047764
0.05662243403233683 0.08264354049677129 0.006864757266115578
0.08264354049564213 0.1133775659709045 0.006864757271091239
0.04959169441408032 0.07049146434612626 0.03844280947767865
0.05662243404281751 0.08735645951286346 0.006864757255941249
0.07336178776191285 0.1324977011083262 0.02259655014341288
0.03750229883699556 0.09663821223381679 0.02259655016058411
0.06417665094583513 0.07262287431578343 0.05454945042358596
0.07141301399949444 0.1447595146533394 0.01624081163154549
0.02630359351118597 0.08900868844981824 0.02436247201825645
0.02630359351861282 0.08099131156265889 0.02436247199045227
0.06980055891057045 0.07245183265597079 0.06654793226167383
0.04821948889596626 0.132022829137896 0.0299778654401396
0.02782681565666538 0.08211766336149255 0.01027660720836516
0.06385726559834658 0.1118583792638341 0.003830643628574627
0.0581416207333403 0.1061427343870309 0.003830643619629016
0.03273090961266856 0.1296706400986093 0.03613464204128663
0.04032935989546352 0.1372690903857114 0.03613464204227773
0.06920888383685891 0.1123992007935321 0.0005696427241029021
0.0534089312155258 0.1245781142568139 0.01098727858488393
0.02782681579972397 0.08788233667331871 0.01027660709071512
0.05760079921079138 0.1007911161518656 0.0005696427390466142
0.03284200751229484 0.07433244617499964 0.06451370826459779
0.04143498156552074 0.06799921675869075 0.03510528797136227
0.02926223270223529 0.06610537270676009 0.05626253449584562
0.06182311271844559 0.1222800639562259 0.006788547580024663
0.04771993600635816 0.1081768872872519 0.006788547522873108
0.05726981332849246 0.07710410727073778 0.006794321490473943
0.05735474145948765 0.1350644825968084 0.02707407959771618
0.03493551734153751 0.1126452585378474 0.02707407960046549
0.04471291921167738 0.1252870808045989 0.01956935778754115
0.03040566782963196 0.07389298478400989 0.06155946929272658
0.0185184913235247 0.1422486525163659 0.05485962932777874
0.05274076555660525 0.07110749547243918 0.05373007968217591
0.05091715933417928 0.06751621201192745 0.04835095420885204
0.04469285788350324 0.07122004401392316 0.06900009975602944
0.02775134748637793 0.1514815086935363 0.05485962932640138
0.02022060372880546 0.107378702864365 0.03731098264484011
0.06262129714907383 0.1497793962828656 0.03731098265043019
0.04558348117369485 0.0766111039475789 0.06653945260796053
0.06754630447020729 0.1218229286730999 0.001462392134498246
0.04817707130744778 0.1024536955445826 0.001462392114342213
0.04084092762576021 0.07320233204301435 0.04930429816926814
0.0178922611202822 0.1244633501341942 0.0435223138034377
0.008186842105263157 0.07144473684210526 0.007911538461538463
0.008186842105263157 0.07144473684210526 0.01667307692307693
0.008186842105263157 0.07144473684210526 0.02543461538461539
0.07151584337875318 0.1491989389682053 0.03479465262816222
0.02080106101764657 0.09848415662043722 0.03479465262656261
0.008186842105263157 0.07144473684210526 0.03419615384615385
0.008186842105263157 0.07144473684210526 0.04295769230769231
0.008186842105263157 0.07144473684210526 0.05171923076923078
0.008186842105263157 0.07144473684210526 0.06048076923076924
0.03243794895119054 0.06591769192477054 0.00189431479866188
0.0515030016526158 0.1184969983571932 0.003667623193882979
0.04044321866326837 0.06815908577643014 0.0302319158580817
0.06507907181469011 0.1358504962477692 0.02391759141668777
0.01881004727677126 0.07234123540518977 0.02620678955618403
0.008186842105263157 0.07144473684210526 0.07800384615384616
0.008186842105263157 0.07144473684210526 0.0692423076923077
0.02819856535214966 0.07511743551817521 0.01318305542603478
0.03414950368855847 0.1049209281774582 0.02391759141790795
0.02173259431551055 0.07309088196132021 0.02050390431717502
0.03734694576412903 0.07261012465232389 0.009533736564149551
0.08252999516947074 0.1179703349905035 0.03548473777615651
0.08037888763570109 0.1498533863077532 0.03164951888252839
0.04500769695844185 0.07140688374776007 0.01613249179704806
0.02014661368271001 0.08962111234866968 0.03164951887220059
0.02716800624835559 0.07177698436706995 0.02394964848724184
0.08230851886896079 0.1161364418834461 0.02801900451355088
0.03103452068518114 0.06790329008246074 0.008368265068967106
[...]
      <PointData>
        <DataArray type="UInt64" Name="type" format="ascii">
1
1
1
1
1
1
1
1
1
1
1
1
1
1
1
1
1
1
1
1
1
1
1
1
1
1
1
1
1
1
1
1
1
1
1
1
1
1
1
1
1
1
1
1
1
1
1
1
1
1
1
1
0
0
0
1
1
1
1
1
1
1
1
1
1
1
1
1
1
1
1
1
1
1
1
1
1
1
1
1
1
1
1
1
1
1
1
1
1
1
1
1
1
1
1
1
1
1
1
1
1
1
1
1
1
1
1
1
1
1
1
1
1
1
1
1
1
1
1
1
1
1
1
1
1
1
1
1
1
1
1
1
1
1
1
1
0
0
0
1
1
0
0
0
0
1
1
1
1
1
0
0
1
1
1
1
1
1
1
1
1
1
1
1
1
1
1
1
1
1
1
1
1
1
1
1
1
1
0
0
1
1
1
1
1
1
1
1
1
1
1
1
1
1
1
1
1
1
1
1
1
1
1
1
1
1
1
1
1
1
1
1
1
1
1
1
1
1
1
1
1
1
0
0
1
1
1
1
0
0
1
0
0
1
1
1
0
1
1
1
1
1
1
1
1
1
1
1
1
1
1
0
1
1
1
1
1
1
1
0
1
1
1
1
0
1
1
0
0
1
1
1
1
1
1
1
1
0
0
1
1
1
1
1
1
1
1
1
1
1
1
1
1
1
1
1
1
1
1
0
0
1
0
1
0
0
0
1
1
0
0
0
0
0
0
0
1
0
1
1
1
1
1
0
0
0
0
0
0
0
1
1
1
1
1
1
1
1
1
1
1
1
1
1
1
1
1
1
1
1
1
1
1
1
1
1
1
1
1
1
1
1
1
1
1
1
1
1
1
0
0
0
0
0
0
0
0
0
0
0
0
0
0
0
0
0
0
0
0
0
0
0
0
0
1
0
0
0
0
0
0
0
1
0
0
0
0
0
0
0
0
0
0
0
0
0
0
0
0
0
0
0
0
0
0
0
0
0
0
0
0
0
0
0
0
0
0
0
0
0
0
0
0
0
0
0
0
0
0
0
0
0
1
0
0
0
0
0
0
0
1
1
1
1
1
1
1
1
1
1
1
1
1
1
1
1
1
1
1
1
1
1
1
1
1
1
0
0
0
0
0
0
0
1
1
1
1
1
1
1
1
1
1
1
1
1
1
1
1
1
1
1
1
1
1
1
1
1
1
1
1
1
1
1
1
1
1
1
1
1
1
1
1
1
1
1
1
1
1
1
1
1
1
1
0
1
1
1
1
1
1
1
1
1
1
1
1
1
1
1
1
1
0
1
0
1
1
1
1
1
1
1
1
1
1
0
1
1
1
1
0
1
1
1
1
1
1
1
1
1
1
0
1
1
1
1
1
0
1
1
1
1
1
1
1
1
1
1
0
1
1
1
1
1
0
1
1
1
1
1
1
1
1
1
1
1
1
1
1
1
1
1
1
1
1
1
1
1
1
1
1
1
1
1
1
1
1
1
1
1
1
1
1
1
1
1
1
1
1
1
1
1
1
1
1
1
1
1
1
1
1
1
1
1
1
1
1
1
1
1
1
1
1
1
1
1
1
1
1
1
1
1
1
1
1
1
1
1
1
1
1
1
1
1
1
1
1
1
1
1
1
1
1
1
1
1
1
1
1
1
1
1
1
1
1
1
1
1
1
1
1
1
1
1
1
1
1
1
1
1
1
1
1
1
1
1
1
1
1
1
1
1
1
1
1
1
1
1
0
0
0
1
0
0
0
1
1
1
1
1
1
1
0
0
0
0
0
0
0
0
0
0
0
0
0
0
0
0
0
0
0
0
0
1
1
1
1
1
1
1
1
1
1
1
1
1
1
1
1
1
1
1
1
1
1
1
1
1
1
1
1
1
1
1
1
1
1
1
1
1
1
1
1
1
1
0
0
0
0
0
0
0
0
0
1
1
1
1
1
1
1
1
1
1
1
1
1
1
1
1
1
1
1
1
1
1
1
1
1
1
1
1
1
1
1
1
1
1
1
1
1
1
1
1
1
1
1
1
1
1
1
1
1
1
1
1
1
1
1
1
1
1
1
1
1
1
1
1
1
1
1
1
1
1
1
1
1
1
1
1
1
1
1
1
1
1
1
1
1
1
1
1
1
1
1
1
1
1
1
1
1
1
1
1
1
1
1
1
1
1
1
1
1
1
1
1
1
1
1
1
1
1
1
1
1
1
1
1
1
1
1
1
1
1
1
1
1
1
1
1
1
1
1
1
1
1
1
1
1
1
1
1
1
1
1
1
1
1
1
1
1
1
1
1
1
1
1
1
1
1
1
1
1
1
1
1
1
1
1
1
1
1
1
1
0
1
1
1
1
1
1
1
1
1
1
1
1
1
1
0
1
1
1
1
1
0
0
0
0
0
0
1
0
1
0
1
1
0
1
1
1
1
1
1
1
1
1
1
1
1
1
1
1
1
1
1
1
1
1
1
1
1
1
1
1
1
1
1
1
1
1
1
1
1
1
1
1
1
1
1
1
1
1
0
1
1
1
1
1
1
0
1
1
1
1
1
1
1
1
1
1
1
1
1
1
1
1
1
1
1
1
1
1
1
1
1
1
1
1
1
1
1
1
1
1
1
1
1
1
1
1
1
1
1
1
1
1
1
1
1
1
1
1
1
1
1
1
1
1
1
1
1
1
1
1
0
0
1
1
1
1
1
1
1
1
0
1
0
1
1
1
1
1
1
1
1
0
0
1
1
1
0
0
1
1
0
0
1
1
0
0
1
1
0
0
1
1
0
0
1
0
0
1
1
1
1
1
1
1
1
1
1
1
1
1
1
0
0
0
0
0
0
0
0
1
0
0
1
1
0
1
1
1
1
1
1
1
0
0
0
0
0
0
0
0
0
0
0
0
0
1
0
0
0
0
0
0
0
0
1
1
1
1
1
1
1
1
1
1
1
1
1
1
1
1
1
1
1
1
1
1
0
1
1
1
1
0
0
1
1
0
0
1
0
0
0
1
0
1
0
0
0
1
1
0
1
1
1
0
0
0
0
0
0
1
0
1
1
1
1
0
1
0
1
1
0
1
1
1
0
1
0
1
1
1
1
1
1
1
1
1
1
1
1
1
1
1
1
1
1
1
1
1
1
1
0
1
1
1
1
0
1
0
1
1
1
1
1
1
1
1
1
1
1
1
1
1
1
1
1
1
1
1
1
1
1
1
1
1
1
1
1
1
1
1
1
1
1
1
1
1
1
1
1
1
1
1
1
1
1
1
1
1
1
1
1
1
1
1
1
1
1
1
1
1
1
1
0
0
1
1
1
1
1
1
1
1
1
1
1
1
1
1
1
1
1
1
1
1
1
1
1
1
1
1
1
1
1
1
1
1
1
1
1
1
1
1
1
1
1
1
1
1
1
1
1
1
1
1
1
1
1
1
1
1
1
1
1
1
1
1
1
1
1
1
1
1
1
1
1
1
1
1
1
1
1
1
1
1
1
1
1
1
1
1
1
1
1
1
1
1
1
1
1
1
1
1
1
1
1
1
1
1
1
1
1
1
1
1
1
1
1
1
1
1
1
1
1
1
1
1
1
1
1
1
1
1
1
1
1
1
1
1
1
1
1
1
1
1
1
1
1
1
1
1
1
1
1
1
1
1
1
1
1
1
1
1
1
1
1
1
1
1
1
1
1
1
1
1
1
1
1
1
1
1
1
1
1
1
1
1
1
1
1
1
1
0
0
0
1
1
1
1
1
1
1
1
1
1
0
0
0
1
1
1
1
1
1
1
1
1
1
1
1
1
1
1
1
1
1
1
1
1
1
1
1
1
1
1
1
1
1
1
1
1
1
1
1
1
1
1
1
1
1
1
1
1
1
1
1
1
1
1
1
1
1
1
1
1
1
1
1
1
1
1
1
1
1
1
1
1
1
1
1
1
1
1
1
1
1
1
1
1
1
0
0
0
0
0
1
0
1
0
0
0
1
0
0
0
0
0
0
0
0
0
0
0
0
1
1
0
0
0
0
0
0
1
1
0
0
0
1
1
1
1
1
1
1
1
1
1
1
1
1
1
1
1
1
1
1
1
1
1
1
1
1
1
1
1
1
1
1
1
1
1
1
1
1
1
1
1
1
1
1
1
1
1
1
1
1
1
1
1
1
1
1
1
1
1
1
1
1
1
1
1
1
1
1
1
1
1
1
1
1
1
1
1
1
1
1
1
1
1
1
1
1
1
1
1
1
1
1
1
1
1
1
1
1
1
1
1
1
1
1
1
1
1
1
1
1
1
1
1
1
1
1
1
1
1
1
1
1
1
1
1
1
1
1
1
1
1
1
1
1
1
1
1
1
1
1
1
1
1
1
1
1
1
1
1
1
1
1
1
1
1
1
1
1
1
1
1
1
1
1
1
1
1
1
1
1
1
1
1
1
1
1
1
1
1
1
1
1
1
1
1
1
1
1
1
1
1
1
1
1
1
1
1
1
1
1
1
1
1
1
1
1
1
1
1
1
1
1
1
1
1
1
1
1
1
1
1
1
1
1
1
1
1
1
1
1
1
1
1
1
1
1
1
1
1
1
1
1
1
1
1
1
1
1
1
1
1
1
1
1
1
1
1
1
1
1
1
1
1
1
0
0
0
1
0
0
1
0
0
0
0
0
0
0
0
0
0
0
0
0
0
0
0
0
0
0
0
0
0
0
0
0
0
0
0
0
1
0
0
0
0
0
0
0
0
1
0
0
0
0
0
0
0
0
0
0
0
0
0
0
0
0
0
0
0
0
0
0
0
0
0
0
0
0
0
0
0
0
0
0
0
0
0
0
0
0
0
0
0
0
0
0
0
0
0
0
0
0
0
0
0
0
0
0
0
0
0
0
0
1
1
1
1
0
0
1
1
1
0
0
0
0
0
1
1
1
1
1
1
1
1
1
1
1
0
1
1
1
0
0
1
1
0
1
        </DataArray>
        <DataArray type="Float64" Name="density" format="ascii">
1003.515892545829
998.6710705275486
997.6735719665504
997.6735720029233
1003.025696853948
1000.663298701161
1006.954062318621
997.4548229201039
997.4548229818538
1000.634902631852
1000.634902426819
999.1860143763394
999.1860144926441
1003.70527106391
999.6028513394828
995.2662093773396
998.8798921060871
998.8798920489681
999.3587804579344
999.3587804885237
1000.508580535197
999.1997126503136
999.1997129379984
1001.414545434468
999.0864167505779
1008.689162840202
1008.689162853302
999.0864167589406
998.0768831305609
995.3220662945553
997.7452731413227
999.0864167951135
993.6521424273581
999.1837964159016
1002.275302841814
1002.275302792108
1003.20985416718
1002.117465595743
1002.11746556877
1003.586177244728
1003.2098539212
999.6849389995383
999.6849386856742
1000.069814653225
997.820054574508
998.4877471363727
998.487746752089
1001.03037780566
1001.030377835935
1002.612302070982
998.8537641718926
1000.914814367871
1000
1000
1000
994.8001614008328
1000.693665657396
997.8214524399597
999.7627405326155
998.0359465639
998.035946366392
1006.302562383819
994.2587583682617
1002.460604667105
1013.166740376138
1000.938732669546
997.8736249982388
998.0517431809793
997.3485301146229
1000.491952821393
1000.491952777786
1000.491952901378
997.7225691370664
1005.459215151431
999.9072967611037
996.743965845774
991.4596902299293
999.3552210560528
999.7490820006096
999.7490819801618
1000.359007348489
1001.115114189484
1001.115114258132
1003.7052710184
999.4543332756609
999.4543332998235
1000.744642474448
1001.645836358617
996.5122851700282
999.5634685579462
999.5634685838937
999.1023526538499
999.1023526572114
1000.758370297885
1000.758370270472
997.7236426841943
1000.758370253365
993.4911820437683
993.4911820563145
1003.515892455535
1000.938732400958
1008.776557573381
1008.776557593847
997.7452731454954
1002.460604743266
998.0938593372836
997.1053613718858
997.1053614266539
1001.680213482985
1001.68021355844
998.8159491040985
1003.935833333558
998.0938596697357
998.8159492190938
998.0165866321735
1004.196641798062
1001.703814534042
1000.759403288944
1000.75940313865
999.5634685960741
992.4460754704817
992.4460753339381
990.7486256290568
999.2869659506337
1001.288426418437
1004.792730496742
1000.999359667223
995.7268716945001
1001.288426438792
1000.302103455051
1000.302103601728
998.6223529566303
1004.670870574633
1004.670870474425
995.679980371663
996.7439658599687
1017.636165418508
1003.091990928987
1003.92304349838
1002.017558145929
1002.01755792974
1000
1000
1000
1000
999.8701656864047
999.2542185722501
1003.025696811676
1003.274492696646
994.5009313349824
1000
1000
993.8578656150302
1003.274493028656
998.4118876740266
1000.492775677802
1003.217995165441
1000.579671717868
1009.69778601829
1000.579671624721
1008.668013596983
1001.167038401803
998.0517428014484
1008.668013761792
1008.668014002942
1001.755828242609
1001.755828245673
1000.178144520603
1000.178144479118
1000.178144266289
1003.274492496403
1002.017558177708
1000.579671818635
1000.290079598835
1000.29007963591
1004.670870602234
1001.219432663846
1000.489479382742
1000
1000
1003.350671596329
986.7785754351083
995.679980390858
1002.173510107359
1000.698979707103
1000.359007228507
1006.139661814797
1009.697786070176
1005.174146379885
1007.574071289855
998.8695572058747
998.8159491129034
993.4911820101407
999.4543333273785
999.5578443295768
997.946125009862
1001.11511409912
1000.938732225828
996.9043524824685
994.5009311769369
999.557844364924
999.6849390411145
991.4596903099616
996.4710042330128
1008.689162708651
999.18601447498
1000.777500012148
995.0773951904769
1006.139661699508
997.5409764977303
1009.697786059739
1008.801259289903
1007.574071245267
1007.574071264843
986.778575338188
989.0367245568877
1004.691654590638
999.6028513769513
997.8214523228719
997.7236425569129
1000.006816433996
1000.006816492314
1000
1000
998.8695571261294
997.7225691216061
1000.777499909449
1017.582642000555
1000
1000
1003.935833375116
1000
1000
995.2662089827635
1000.492775499209
993.6521413315114
1000
998.6144219160471
1008.776557650961
1008.801259199899
1010.010042204749
986.4741976953552
999.9072967721398
998.0768832595983
998.0768835619261
1004.741016263352
1005.174146250715
993.266035118504
998.6710705231612
981.203300638238
995.7268717786761
1003.168687770152
1003.217995155827
1003.025696822313
999.1997127555154
997.9461250457341
997.8200543848066
1001.01408748657
1002.810014357261
1003.491595506809
998.8537640549011
998.09385950337
1000.700259570015
1003.708727545147
1020.222790728816
1000.679369906389
998.3688793651295
1000
1000
998.4877467960063
1000.162485512401
1000.986203198266
1003.350671745484
1001.392262957879
1003.217995256947
1003.5158925863
981.2033006588028
1000
1000
1000.698979781219
993.2660351844046
993.6521420859543
993.8578653809991
998.4118878129077
1003.350671683339
1000.79576888118
1017.582641776563
1006.170458823475
986.7785755126431
1001.821077979261
1004.943484195289
998.4118881418381
994.5009308832914
998.9198908791618
1000.700259556374
993.8578648992517
989.2864346672533
989.2864340975127
1004.196641671814
1000
1000
989.0367246226706
1000
1003.586177024294
1000
1003.168687895474
1003.491595316322
1003.705271059078
1002.814163332135
1017.636165089362
1003.09199101942
1003.923043366737
1000
1000
1000
1000
1000.069814873954
1020.222790823574
1002.814163362059
999.4503529302743
1000.744642477383
1003.705271021569
1004.66623494175
1000
1000
1000
1000
1003.168687940236
1003.491595408765
1020.222790482748
981.649859019369
1001.562756375032
1001.562756324947
1001.014348831778
1001.014348728296
994.2587585687846
998.8317677949541
996.9420541071064
996.942053937495
999.2181169374164
999.4214548477329
997.934243772876
997.4574144192655
1000.021321448438
992.8178145832981
1000.021321257306
995.9225462996584
997.4574143850045
1002.377929338973
1001.00203572383
1002.377929276937
998.9837556462669
1001.199187990278
998.9837557496159
997.7236426071586
995.2662094328641
999.7627406424998
999.4503529902757
1000.819148141938
1000.721680283203
1003.708727586092
995.0229953490318
994.8001613756589
998.3688793619363
998.8537642006083
1003.515892455612
1006.302562455094
1000.679369916095
1000.69366560583
1000
1000
1000
1000
1000
1000.202935235513
1000
1000
1000
1000
1000
1000
1000
1000
1000
1002.34859260025
1000.565941584405
1000
1000
1000
1003.701733435709
1002.958830644729
1000.505040761726
1000.059952307904
1001.246667042973
1003.399718603014
1003.923043344145
1001.154915386893
1000
1000
1000
1000
1002.68075548997
984.3479880859379
1003.091990942875
1001.85084904423
1004.048760728291
1002.528510884633
1001.20543362822
1000.89787818063
1001.904727836627
1019.660365287489
1018.571858653504
1008.554812904137
1023.476499131212
1006.057603137109
1003.382658731872
1000.705644161588
1001.850849021659
1004.048760538019
1002.528510810051
1001.205433612798
1000.897878097168
1001.904727735831
1001.398457775181
1001.1549153887
1000
1000
1000
1000
1002.680755465867
1002.916681923786
1000
1003.701733450187
1002.958830680689
1000.505040855532
1000.059952358534
1001.246667121695
1001.494833175532
1000
1000
1000
1002.348592694867
1000.565941676094
1000
1000
1000
1000
1000
1000
1000
1000
1000
1001.309502279167
1000
1000
1000
1000
1000
1000.202935232395
1000.198564652159
995.6799804527132
1005.459215184153
999.6028512983416
1000.663298646004
999.1837965365979
997.7452731082254
1001.16703842284
1005.459215168523
1001.219432591352
997.2714082900454
1001.703814502004
1000.571855769788
998.0559954020331
1003.453268642611
1000.931989500593
993.445482041437
996.5122852378738
1003.453268799808
997.2714084103324
1000.86531895227
999.3552213577535
999.2869657079053
1000.492775263273
999.8701657032647
1001.309502269988
999.8701657712353
1003.382658771602
1006.057603229436
1023.476499325752
1008.554813034123
1018.571858550982
1019.660365213514
1017.636165355121
1003.025365624887
1000.04463219459
999.8219808844848
1001.407498586631
1001.407498648203
999.8219807479068
1000.044632116759
995.2023860867954
1010.010042307828
998.0517435701174
1003.527721513512
1004.741016337382
1000.919308208967
1003.209854166578
1002.450193329984
1001.645836569453
999.1827784321749
986.4741977298582
995.0773952027118
998.0419926084362
1002.450193025299
1011.901332184905
998.6144219168447
998.0419922382893
999.8113943723564
999.8113944873224
1000.914814142087
994.9073188825993
1003.527721624418
994.9073188794068
1005.710064820306
1000.91930861089
995.202386306359
989.2864343334372
999.1827785108038
1000.370561523089
1001.156729329942
1002.450192894837
1000.571855884045
1000.986203126935
1006.170458847472
999.1277763623386
1000.86531890044
995.3220663600915
1004.691654598276
1003.427684721564
999.5578441793074
999.1277762082835
1000.069814725474
1001.071262793281
1001.071262779448
1000
1000.162485629642
999.1277762624993
998.6223529813153
1000.669308345479
992.1136710961657
999.2176805449491
1000.72168027854
994.8001613872023
992.113670867177
1007.591322647309
998.0165867426626
1003.213300878635
1000.370561562778
995.3220664294316
984.3479881715934
1002.612302070157
1000.489479340738
1000
997.8736250426927
1000
1004.943484078337
1000.669308384165
993.4454819935082
1000.931989573764
1001.156729337666
1000.669308369168
1004.792730510656
999.2176805413416
989.0367246246074
997.9461249859519
1000
996.5122852782341
997.7452731277441
1000.795768737198
997.8200544503874
1000
1006.170458847812
999.9366088685844
1001.821077948938
997.7225692151577
1000.489479526479
1002.173510008928
1002.810014309969
1001.392262841761
999.4503529710746
1000.359007034559
1000
1002.173509995326
1004.666234972749
1004.196641748898
999.3552212109512
1000.819148211529
1000
1001.156729319026
1004.691654742916
1001.219432628789
1001.414545366743
1001.167038487439
999.9366088568307
1000.999359809492
984.3479880209372
999.7701320141281
1001.014087479837
1000
993.4454820252583
1000.931989654785
1004.666234981201
999.9366088968675
999.7701320306189
1000
995.0229953804708
997.7452731144526
996.5122852880287
993.4454820563042
1000.93198956052
996.5122852461376
993.4454819959269
1000.931989520289
1003.515892516955
1006.170458851951
1000.931989502525
993.4454820299355
1006.170458840205
1001.156729310194
999.396469636342
999.396469607658
999.3964695851232
999.3964695898536
1000.33011045167
1000.330110484761
1006.30256244285
1003.705271116898
1003.705271055648
1006.170458837957
1000.931989603629
993.4454820424971
996.5122852532811
996.5122852409813
1000.3301104481
1000.330110376015
999.3964696145227
999.3964696183501
999.3964695908353
999.3964696197896
999.5634686116659
999.5634685579647
1000.7583702745
1000.75837030284
1000.931989614958
997.7452731466032
999.4503529638581
1006.170458844572
1006.170458807411
999.4503530207453
993.4454820166106
1000.390495972758
1000.390495990419
1000.390495950062
1000.390495944011
1000.390495979958
1000.390495968987
1000.390495978161
1004.666234941263
1004.666234901184
1004.666234886552
1004.666234918685
1004.666234943177
996.5122852537809
994.8001613969367
994.8001613526584
994.8001613733985
994.8001614297249
994.8001613474277
1003.515892580242
999.7701319679859
999.7701319846451
1000.39049593828
1001.156729334699
1001.156729304629
1001.156729344197
1001.156729363627
999.9366088526009
999.9366089245119
999.9366089199003
999.9366088526714
999.9366088685316
1000.669308426196
1000.669308431437
1001.01408740771
1001.014087461857
998.6710705263895
997.6735720078925
997.6735720217156
1006.954062386374
997.454822991335
1000.914813807539
999.1860144833868
1000.634902665584
998.8798921482049
1000.508580568434
999.1997128412337
999.0864167160501
1002.11746557755
1002.117465593057
994.2587585852616
998.0359465255933
999.7490819411627
999.7490819524576
999.4543333206186
1000.928939635127
1000.928939671758
999.1023526470198
997.1053613571196
997.9461250160167
997.7225691514194
1002.460604864366
997.1053613206764
998.8159492149106
1000.759403327153
1000.759403216258
990.7486256859412
1001.219432602318
1000.698979999693
992.4460754536361
1000.302103660202
1003.935833318734
1003.93583328972
1004.670870572712
997.7236425832768
1000.489479414597
996.7439658373767
1003.21799517969
999.2542186061406
1000.359007157928
1001.167038429508
999.5578442552513
995.0773951565308
1001.755828252312
1001.821077997149
984.3479881228982
1013.166740387959
991.4596902487249
1006.139661827586
997.5409767355985
998.8695572104119
1017.582641713317
998.6144218949163
986.4741977042097
981.2033006595079
1010.010042360969
1004.74101630125
1008.801259178839
993.2660351677625
1000
1000
1000
1001.309502223929
1000
1000
1000
1005.17414639067
999.9072967697726
998.6223530151017
1000.044632271958
1003.527721543918
998.0419927876211
1003.453268525026
1000
1000
1000
1000
1000
1000
1000
1000
1000
1000
1003.701733517479
1002.958830501572
1001.154915596643
1000
1000
1001.850849036298
1004.048760845037
1002.528510912202
1019.660365105233
1018.571858534888
1008.55481301427
1001.114014511739
1003.540168902526
1000.99935976838
995.322066361909
1001.114014517778
1003.540168843413
1004.943484078451
999.0440539626096
998.0559953463812
1000.774141622789
997.776929583378
999.6028513640044
1002.494470292716
1003.213300844217
999.6216410234101
998.3054740633434
996.9772214856284
999.0440540128529
1004.943484113596
1000.795768758407
1000.795768871914
997.2714083769724
998.0363389361471
999.2176804577938
1000.77749999221
1003.708727565513
999.3552211692157
1000.734682152997
1001.098220578181
1000.700259542404
1000.777499935518
997.1014903188988
1000.459690661894
999.2176804667682
1001.365626808194
999.3466860024608
1007.591322597888
1002.812471364638
1001.414545426983
1002.537865040343
998.3688793479679
992.1136709477414
1000
1000
1000
1000
1000.139312638086
1000
1000
1000
1000
995.0229954162381
1000.032557263956
1001.365626823411
1002.494470065822
997.2714082848515
1000.81914821012
1000.986203105414
1000.663298658031
1004.792730517492
997.7769296015728
1000.693665667139
1001.071262749222
1001.392262862509
1000.679369934461
1000.162485654398
1002.29975308655
1002.812471366851
1002.812471521517
996.9772215269359
1002.494470148835
997.8275435207745
1001.131330716136
1000.370561573717
999.183796456064
1000.999359711059
999.1940049779105
999.1940049190091
999.1940049371395
999.1940049347651
999.1940049811826
999.1940049195427
999.1940049648073
999.1940049144144
998.3054741005124
999.3970921444846
999.3970921999227
1001.722440122436
1001.722440093141
999.0440539983338
1000.032557201765
1000.032557261059
999.0440539751512
995.7268717119268
998.0894678778332
998.0894678382723
998.089467906151
1002.612302110415
993.0128894953672
1001.078842116028
997.1014903093109
997.1014903920375
999.8621646031321
999.4503530298178
999.4503529849441
999.4503530020321
997.9461250510624
1006.139661733727
1002.299753069315
1002.299753183288
1000.055851060222
1000.055850992142
1008.689162755632
1002.173509944553
1001.167038416328
1000.881952233484
1000.72983987636
1000.729839874902
1000.729839818152
1003.540168843959
1003.540168871268
1002.810014399065
1001.432215734762
999.3970921282643
999.7701320015841
1000.446542731493
1000.446542771338
1001.014087441145
999.355221215609
999.3552211477386
1004.792730447602
1003.209854108599
1001.703814521654
996.9772215521708
999.6134010897049
999.6134010942877
999.6134010811821
999.6134011075997
999.6682760391335
999.6682759352412
999.6682759957226
999.6682759866261
999.3466859693641
999.346686058943
1001.365626797437
1001.365626773006
999.884295562915
999.8842955952352
999.8842956048239
997.8214524216571
999.3660119734647
999.3660121410463