<VTKFile type="PolyData" version="1.0" byte_order="LittleEndian" header_type="UInt64">
  <PolyData>
    <Piece NumberOfPoints="3159" NumberOfVerts="3159">
      <Points>
        <DataArray type="Float64" Name="Points" NumberOfComponents="3" format="ascii">
0.03509996041284624 0.01774707936709732 0.0503605066459762
0.03736845270231934 0.02695292938418874 0.0389952320275597
0.08927738527795238 0.07207347591007081 0.06107698847017819
0.08072261471985429 0.07207347590956535 0.06107698847015154
0.08923579291385381 0.06341374544660118 0.06305679982655633
0.08076420708503737 0.06341374544713725 0.06305679982707516
0.08903001303961688 0.05489546858057522 0.06617024924321621
0.080969986960628 0.05489546858074245 0.06617024924347226
0.08918333677825561 0.04559680732392432 0.0742408824297001
0.08081666322160842 0.04559680732433238 0.07424088243005136
0.0725662320143934 0.04578895735047349 0.07416085843380224
0.08976077671088073 0.07284513800954022 0.05209482760891417
0.080239223288224 0.07284513800926896 0.05209482760924487
0.0896675209788706 0.06304644506691548 0.05389457974085993
0.08033247902044428 0.06304644506692562 0.05389457974194669
0.08939881585252095 0.05553144403198567 0.05710977165170317
0.08060118414792773 0.05553144403296833 0.05710977165365333
0.08041652478980217 0.0452343554583905 0.06655735883893844
0.07297530562914763 0.04568931746029782 0.06597819637163187
0.06415173250393646 0.04587590899771131 0.06795540578105295
0.1139555376312234 0.03928848527751623 0.09903821527007466
0.1307115147205346 0.05604446236843533 0.09903821527006719
0.08922366023796142 0.05480668052902181 0.04682350467593185
0.08077633976269329 0.05480668052864 0.04682350467465372
0.08065755741853584 0.04526658646736187 0.05541174115743421
0.072527403507592 0.0453211333129102 0.05589015192652763
0.06381539060973174 0.04569145499053877 0.05749108248650096
0.08954678203139098 0.02709946228706285 0.08298406145347398
0.1257721909487196 0.01826671212413085 0.102054074134517
0.1517332878754477 0.04422780905125545 0.1020540741346047
0.1226256969965864 0.05637288380258963 0.09754430692027989
0.1136271161972023 0.04737430300242908 0.09754430692067734
0.1073242174498469 0.02853164614126206 0.09952256911243273
0.1414683538572684 0.06267578254973605 0.09952256911296088
0.08958347520979539 0.04523435545802471 0.06655735883788841
0.08071411920208732 0.03815320927415149 0.09726228163557506
0.08928588079817626 0.03815320927429907 0.09726228163569876
0.09711917197836915 0.06197750731025711 0.09618015857491266
0.07288082802152573 0.06197750730996648 0.09618015857382156
0.1080224926892951 0.07288082802141672 0.09618015857404687
0.07248850621084488 0.03852364461661952 0.09686163424763596
0.0803475426214372 0.02650415456795779 0.05841456481139115
0.07198211931349544 0.03658558010336784 0.05195875440973469
0.05632082357745668 0.04135691198291767 0.01151784142599972
0.08938827931687959 0.03686495430288065 0.06912014952627883
0.06349526472687637 0.0365570265292537 0.0534221031165452
0.08051260218562889 0.01811099686441398 0.06919775126763469
0.06466885309960928 0.04240901333418778 0.006143215232063883
0.08076508419254193 0.04295517327990603 0.003397154059256667
0.07198036512728481 0.04262819761696211 0.004559033793226972
0.05528455041177085 0.03727871366951205 0.03824884183280589
0.07138662777979932 0.01797820889524829 0.07013948806949521
0.07157129294355843 0.02643531719714078 0.0591372099525168
0.08113230487936832 0.02421151935615404 0.02715328942537429
0.08081789559877592 0.02696282976630003 0.03281873540512857
0.05499452236308006 0.03701977248042949 0.05563503709649719
0.09751149378878916 0.03852364461669786 0.09686163424740178
0.0632562511233194 0.03718598195348682 0.0353080934080238
0.07206295086325852 0.0372463489129524 0.03376819112760179
0.08064616432350463 0.03738151549778333 0.03298131237871476
0.1314763553831552 0.07248850621083448 0.09686163424726479
0.08967561156086573 0.06148689188202839 0.0957705536061252
0.07176662440609483 0.02871021035158825 0.09857741219317881
0.08055085097576577 0.01836021983024952 0.06016750214182458
0.08088372812007195 0.02476613975641042 0.01637896340485231
0.09823337559379505 0.02871021035228572 0.09857741219291712
0.04686282509667935 0.04686282508859654 0.03191440691042545
0.04506449755002572 0.02709958203579089 0.04953472104571332
0.05397836650629673 0.0262805435826055 0.0461414740164483
0.06242797334095666 0.02645092299259109 0.04351074367726048
0.1412897896477159 0.07176662440627952 0.09857741219304417
0.04718250345398239 0.03941570157887937 0.01706388800550956
0.04812967396741086 0.04812967396110514 0.006079331402791305
0.08934244258279124 0.04526658646772531 0.05541174115809387
0.04507620244530603 0.0270767112164443 0.05723210408426929
0.046828838422243 0.03885079330184989 0.02569917863096203
0.04630201083696745 0.0463020108468733 0.014117950647511
0.09743376798541753 0.04578895735081907 0.07416085843269676
0.1242110426482404 0.07256623201329628 0.074160858433507
0.08032438843937603 0.06148689188199134 0.09577055360547357
0.04723321190427969 0.03841358991296175 0.03500001715195879
0.04700714264698235 0.04700714263742631 0.02356251377881076
0.05791424957351649 0.04681138986117384 0.02401610182652042
0.0637607312841402 0.04591425932201722 0.02139357716053101
0.08054871955696416 0.04553399801011545 0.01844913021372242
0.07351815678897571 0.04566578471241906 0.01932472091161073
0.08048694440680268 0.01852993758688632 0.05117052825784876
0.08969385729119426 0.02890140188222927 0.09736317603820462
0.08871157550850188 0.0579713398056504 0.006078420124568022
0.1138547525997156 0.05614524740006868 0.07019846432332735
0.08030614270899399 0.02890140188284317 0.09736317603736312
0.08933544732429466 0.06497064343107378 0.001341875101267098
0.1221635473195408 0.04783645267989829 0.09522081517489987
0.08128842449286454 0.05797133980500208 0.006078420125665575
0.07153389398461887 0.02638769039209066 0.06724413025641296
0.07239355401325305 0.0467574018644897 0.09428973404137798
0.1431746950757064 0.07158005521586598 0.07569817134689855
0.1431031458442965 0.0625905151310317 0.07661970061142427
0.1429562478515836 0.0541362848912778 0.07869752873207168
0.1421001207819141 0.04551300857872249 0.08157675465573291
0.0806645526743861 0.06497064343200747 0.001341875101404525
0.08043085835897801 0.02630735262797047 0.06664858542528036
0.04675528671663477 0.03812883908175686 0.05151062282536605
0.1329734690933437 0.07224420853325039 0.06944626066368435
0.05521510103805227 0.03704781646700928 0.04715191927553455
0.06347141662703171 0.03678542082932172 0.04504924272534149
0.08059952757053834 0.03684210010733429 0.04286859859819588
0.07220805986761467 0.03681867375699898 0.04343854338050861
0.1232425981349902 0.07239355401345046 0.09428973404226684
0.08067520795173687 0.04661371847068004 0.009045833377245209
0.131653197712753 0.04719377668839609 0.06864348729975117
0.07403557411267553 0.0465719021650193 0.01030786253323492
0.0640825297144532 0.04689652586646981 0.01235917295312746
0.05867614690914257 0.04797143186199355 0.01507563322488824
0.07133712428022858 0.01779127076633407 0.07880954943488613
0.08052302031700852 0.0177926448191263 0.07782655587860593
0.08072598908984685 0.07350361913867241 0.01040770246780197
0.08173080718232116 0.03318228097344177 0.003359223048867327
0.05389952333651822 0.02616326789814464 0.05415020105166998
0.04688318987650958 0.03806430416389662 0.04317330039945023
0.09760644598661365 0.04675740186442847 0.09428973404226429
0.05925750904387624 0.04963387780173142 0.004229069975559207
0.08055125919494555 0.02636916359078468 0.04160300799284632
0.07246801210600542 0.03823180579822827 0.02504901310055817
0.0718367919948863 0.02599529236107153 0.04268362314586963
0.1149100927108714 0.07263978476178426 0.06650986796278946
0.1062667653484932 0.07276156178171439 0.06331911993797078
0.09754012414540746 0.07245987585480884 0.06159558936100141
0.1142348072061597 0.0641914695605883 0.06776205546310898
0.1060771429101076 0.0639228570898917 0.06497425241381796
0.09723843821804136 0.06373323465100514 0.06331911993765182
0.1058085304390348 0.05576519279355568 0.06776205546227725
0.09736021523745503 0.05508990728775046 0.06650986796246322
0.08050380290341064 0.02621554833792091 0.04960088375361735
0.05642864008611847 0.03838460428898759 0.03005052565249075
0.08101519983643889 0.03989270821714255 0.01536658446326331
0.08092790148118897 0.03800752920000734 0.02385564786416836
0.1243106825392639 0.07297530562894261 0.06597819637072413
0.114562060014777 0.07312806876141456 0.0576024425267203
0.1065271706324578 0.07335424504267664 0.05407739807465397
0.09697299054274788 0.07302700945634187 0.05230573386750197
0.1241240910008325 0.0641517325027523 0.06795540578137201
0.1141055885717207 0.06398638922548226 0.05883073650171747
0.1063708032211409 0.06362919677791493 0.0558934844966947
0.09664575495619351 0.063472829367446 0.05407739807324618
0.1231577991636664 0.05657909750436878 0.06870262806366792
0.113844455022863 0.05615554497596352 0.06142288050969649
0.106013610774308 0.05589441142652319 0.05883073650072207
0.09687193123741297 0.05543793998456985 0.0576024425258907
0.1230304357177931 0.0469695642816195 0.07607964316062954
0.1134209024942871 0.04684220083611654 0.06870262806146486
0.1058482674966646 0.04587590899790655 0.06795540578078656
0.09702469437073309 0.04568931745906352 0.0659781963698213
0.07216117229555744 0.04009913985354181 0.01633247640302121
0.06258942644213061 0.02621746407039013 0.05150113692679517
0.06415329337691214 0.03862696192369607 0.02685268561453625
0.07166863394506801 0.02613273177551267 0.05051987276564413
0.06439386766535146 0.04046103353225996 0.0185233871871839
0.05573182883025895 0.04018824738631724 0.02128979761416389
0.09750626388104996 0.07249373611837141 0.09316428313280538
0.1246788666849305 0.07252740350837285 0.05589015192867806
0.1150410135658204 0.07255233072893821 0.04745012588735091
0.1066087931554927 0.07301504651887003 0.04389417639285621
[...]
      <PointData>
        <DataArray type="UInt64" Name="type" format="ascii">
1
1
1
1
1
1
1
1
1
1
1
1
1
1
1
1
1
1
1
1
1
1
1
1
1
1
1
1
1
1
1
1
1
1
1
1
1
1
1
1
1
1
1
1
1
1
1
1
1
1
1
1
1
1
1
1
1
1
1
1
1
1
1
1
1
1
1
1
1
1
1
1
1
1
1
1
1
1
1
1
1
1
1
1
1
1
1
1
1
1
1
1
1
1
1
1
1
1
1
1
1
1
1
1
1
1
1
1
1
1
1
1
1
1
1
1
1
1
1
1
1
1
1
1
1
1
1
1
1
1
1
1
1
1
1
1
1
1
1
1
1
1
1
1
1
1
1
1
1
1
1
1
1
1
1
1
1
1
1
1
1
1
1
1
1
1
1
1
1
1
1
1
1
1
1
1
1
1
1
1
1
1
1
1
1
1
1
1
1
1
1
1
1
1
1
1
1
1
1
1
1
1
1
1
1
1
1
1
1
1
1
1
1
1
1
0
1
1
1
1
1
1
1
1
1
1
0
0
0
0
1
1
1
1
1
1
1
1
1
1
1
1
1
1
1
1
1
1
1
1
1
1
1
1
1
1
1
1
1
1
1
1
1
1
1
1
1
1
1
1
1
1
1
1
1
1
1
1
1
1
1
1
1
0
0
1
1
1
0
0
1
1
1
1
1
1
1
1
1
1
1
1
1
1
1
1
1
1
1
1
1
1
1
1
1
1
1
1
1
1
1
1
1
1
1
1
1
1
1
1
1
1
1
1
1
1
1
1
1
1
1
1
1
1
1
1
1
1
1
1
1
1
1
1
1
1
1
1
1
1
1
1
1
1
0
1
1
1
1
1
1
1
1
1
1
1
1
1
1
1
1
1
1
1
0
1
1
1
1
1
1
1
1
1
1
1
1
1
1
1
1
1
1
1
1
1
1
1
1
1
1
1
1
1
1
0
1
1
0
1
0
1
1
1
1
1
1
1
1
1
1
1
1
1
1
1
1
0
0
1
1
1
1
1
1
1
1
1
1
1
1
1
1
1
1
1
1
1
1
1
1
1
1
0
1
1
1
0
0
0
0
0
1
0
1
0
1
1
1
1
0
0
0
0
1
1
0
0
0
1
1
1
1
1
1
1
1
1
1
1
1
1
1
1
1
1
1
1
1
1
1
1
1
1
1
1
1
1
1
1
1
1
1
1
1
1
1
0
0
1
1
0
0
1
1
1
1
1
0
1
1
0
1
1
1
1
1
1
1
1
1
1
1
1
1
0
0
0
0
0
0
0
0
0
0
0
0
0
0
0
0
0
0
0
0
0
0
0
0
1
1
0
0
0
0
0
0
1
1
1
0
0
0
0
0
0
0
0
0
0
0
0
0
0
0
0
0
0
0
0
0
0
0
0
0
0
0
0
0
0
0
0
0
0
0
0
0
0
0
0
0
0
0
0
0
0
0
0
0
0
0
0
0
0
1
1
1
1
1
1
1
1
1
1
1
1
1
1
1
1
1
1
1
0
0
0
0
1
1
1
1
0
0
0
1
1
1
1
1
1
1
1
1
1
1
0
0
0
0
1
1
1
1
1
1
1
0
0
0
1
1
1
1
1
1
1
1
1
1
1
1
1
1
1
1
1
1
1
1
1
1
1
0
0
0
0
0
1
1
1
0
0
1
0
0
0
0
0
0
0
0
0
0
0
0
0
0
0
0
1
1
0
0
0
0
0
0
0
0
1
0
0
0
0
0
0
1
0
0
0
0
0
0
0
1
1
1
1
1
1
1
1
1
1
1
1
1
1
1
1
1
1
1
1
1
1
1
1
1
1
1
1
1
1
1
1
1
1
1
1
1
1
1
1
1
1
1
1
1
0
0
0
0
0
0
1
1
0
0
1
1
0
0
1
0
0
0
0
0
1
0
0
0
0
0
0
0
0
0
0
0
0
0
0
0
0
0
0
1
0
0
0
0
0
0
0
1
0
0
0
0
0
0
0
1
0
0
0
0
0
0
0
1
0
0
0
1
1
1
1
1
1
1
1
1
1
1
1
1
1
1
1
1
1
1
1
1
1
1
1
1
1
1
1
1
1
1
1
1
1
1
1
1
1
1
1
1
1
1
1
1
1
1
1
1
1
1
1
1
1
1
1
1
1
1
1
1
1
1
1
1
1
1
1
1
1
1
1
1
1
1
1
1
1
1
1
1
1
1
1
1
1
1
1
1
1
1
1
1
1
1
1
1
1
1
1
1
1
1
1
1
1
1
1
1
1
1
1
1
1
1
1
1
1
0
0
0
0
1
1
1
0
1
1
1
1
1
1
1
1
1
1
1
1
1
1
1
1
1
1
1
1
1
1
1
1
1
1
1
1
1
1
1
1
1
1
1
1
1
1
1
1
1
1
1
1
1
1
1
0
1
1
1
0
0
1
1
1
1
1
1
1
1
1
1
1
1
1
1
1
1
1
1
1
1
1
1
1
1
1
1
1
1
1
1
1
1
1
1
1
1
1
1
1
1
1
1
1
1
1
1
1
1
1
1
1
1
1
1
1
1
1
1
1
1
1
1
1
1
1
1
1
1
1
1
1
1
1
1
1
1
1
1
1
1
1
1
1
1
1
1
1
1
1
1
1
1
1
1
1
1
1
1
1
1
1
1
1
1
1
1
1
1
1
1
1
1
1
1
1
1
1
1
1
0
0
0
0
0
0
0
0
0
0
0
0
0
0
0
0
1
0
0
1
1
1
0
0
0
1
1
0
0
0
0
0
0
0
0
0
0
0
0
0
0
0
0
0
0
0
0
0
0
0
0
0
0
0
0
0
0
0
0
0
0
0
1
1
1
1
1
1
1
1
1
1
1
1
1
1
1
1
1
1
1
1
1
1
1
1
1
1
1
0
0
1
1
1
1
0
1
1
1
0
0
1
1
1
0
0
0
0
0
1
1
1
1
0
1
1
1
1
1
1
1
1
0
1
1
1
1
1
1
1
1
1
1
1
1
1
1
1
1
1
1
1
1
1
1
1
1
1
1
1
1
1
1
1
1
0
1
1
1
1
1
1
0
1
1
1
1
1
1
1
1
1
1
1
1
1
1
1
1
1
1
1
1
1
1
1
1
1
1
1
1
1
1
1
1
1
1
1
1
1
1
1
1
1
1
1
1
1
1
1
1
1
1
1
1
1
1
1
1
1
1
1
1
1
1
1
1
1
1
1
1
1
1
1
1
1
1
1
1
1
1
1
1
1
1
1
1
1
1
1
1
1
1
1
1
1
1
1
1
1
1
1
1
1
1
1
1
1
1
1
1
1
1
1
1
1
1
1
1
1
1
1
1
1
1
1
1
1
1
1
1
1
1
1
1
1
1
1
1
1
1
1
1
1
1
1
1
1
1
1
1
1
1
1
1
1
1
1
1
1
1
1
1
1
1
1
1
1
1
1
1
1
1
1
0
1
1
1
1
0
0
0
0
1
0
1
0
0
0
1
0
0
0
0
0
0
0
0
0
0
0
0
0
0
0
0
0
0
0
0
0
0
0
0
0
0
0
0
0
0
0
0
1
1
1
1
1
0
0
0
0
1
1
1
1
1
1
1
1
1
1
1
1
1
1
1
1
1
1
1
1
1
1
1
1
1
1
1
1
1
1
1
1
1
1
1
1
1
1
1
1
1
1
1
1
1
1
1
1
1
1
1
1
1
1
1
1
1
1
1
1
1
1
1
1
1
1
1
1
1
1
1
1
1
1
1
1
1
1
1
1
1
1
1
1
1
1
1
1
1
1
1
1
1
1
1
1
1
1
1
1
1
1
1
1
1
1
1
1
1
1
1
1
1
1
1
1
1
1
1
1
1
1
1
1
1
1
1
1
1
1
1
1
1
1
1
1
1
1
1
1
1
1
1
1
1
1
1
1
1
1
1
1
0
0
0
0
0
0
0
0
0
0
0
0
1
1
1
1
1
1
1
1
1
1
1
1
1
1
1
1
1
1
1
1
1
1
1
1
1
1
1
1
1
1
1
1
1
1
1
1
0
0
0
0
0
0
0
0
0
0
0
0
1
1
1
1
1
1
1
1
1
1
1
1
1
1
1
1
1
1
1
1
1
1
1
1
1
1
1
1
1
1
1
1
1
1
1
1
1
1
1
1
1
1
1
1
1
1
1
1
1
1
1
1
1
1
1
1
1
1
1
1
1
1
1
1
1
1
1
1
1
1
1
1
1
1
1
1
1
1
1
1
1
1
1
1
1
1
1
1
1
1
1
1
1
1
1
1
1
1
1
1
1
1
1
1
1
1
1
1
1
1
1
1
1
1
1
1
1
1
1
1
1
1
1
1
1
1
1
1
1
1
1
1
1
1
1
1
1
1
1
1
1
0
0
0
0
0
0
0
1
1
1
1
1
1
1
1
1
1
1
1
1
1
1
1
1
1
0
0
0
0
0
0
0
1
1
1
1
1
1
1
1
1
1
1
1
1
1
1
1
1
1
1
1
1
1
1
1
1
1
1
1
1
1
1
1
1
1
1
1
1
1
1
1
1
1
1
1
1
1
1
0
0
0
0
0
0
0
0
0
0
0
0
1
1
1
1
1
1
1
1
1
1
1
1
1
1
1
1
1
1
1
1
1
1
1
1
1
1
1
1
1
1
1
1
1
1
1
1
1
1
1
1
1
1
1
1
1
1
1
0
0
0
0
0
0
0
1
1
1
1
1
1
1
1
1
1
1
1
1
1
1
1
1
1
1
1
1
1
1
1
1
1
1
1
1
1
1
1
1
1
1
1
1
1
1
1
1
1
1
1
1
1
1
1
1
1
1
1
1
1
1
1
1
1
1
1
1
1
1
1
1
1
1
1
1
1
1
1
1
1
1
1
1
1
1
1
0
1
1
1
1
1
1
1
1
1
1
1
1
1
0
1
1
1
1
1
1
1
1
1
1
1
1
0
1
1
1
1
1
1
1
0
0
1
1
0
0
0
0
0
0
1
0
1
1
1
1
1
0
1
1
1
1
1
1
1
1
1
1
1
1
0
1
1
1
0
1
1
1
1
1
1
1
1
1
1
1
1
1
1
1
1
1
1
1
1
1
1
1
1
1
1
1
1
1
1
1
1
1
1
1
1
1
1
1
1
1
1
1
1
1
1
1
1
1
1
1
1
1
1
1
1
1
1
1
1
0
1
1
1
0
0
0
1
1
0
0
0
0
0
0
1
1
0
0
0
0
0
0
1
1
1
1
1
1
0
0
1
1
1
1
1
1
1
1
1
1
1
1
1
1
1
1
1
1
1
1
1
1
0
1
1
0
0
0
0
0
0
0
0
0
0
0
0
0
0
0
0
0
1
0
0
0
0
0
0
0
0
1
1
1
1
1
1
1
1
0
1
0
1
1
0
0
1
1
1
1
1
1
1
1
0
0
0
1
0
0
0
0
1
1
0
0
1
1
1
1
1
1
1
1
1
1
1
1
1
1
1
1
1
0
1
1
1
1
1
1
0
1
1
1
1
1
1
0
1
0
1
1
1
1
1
1
1
1
1
1
1
1
1
1
1
1
1
1
1
1
1
1
1
1
1
1
1
1
1
1
1
1
1
1
1
1
1
1
1
1
1
1
1
1
1
1
1
1
1
1
1
1
1
1
1
1
1
1
1
1
1
1
1
1
1
1
1
1
1
1
1
1
1
1
1
1
1
1
1
1
1
1
1
1
1
1
1
1
1
1
1
1
1
1
1
1
1
1
1
1
1
1
1
1
1
1
1
1
1
1
1
1
1
1
1
1
1
1
1
1
1
1
1
1
1
1
1
1
1
1
1
1
1
1
1
1
1
1
1
1
1
1
1
1
1
1
1
1
1
1
1
1
1
1
1
1
1
1
1
1
1
1
1
1
1
1
1
1
1
1
1
1
1
1
1
1
1
1
1
1
1
1
1
1
1
1
1
1
1
1
1
1
1
0
1
1
0
1
0
1
1
1
1
1
1
1
1
1
1
1
1
1
1
1
1
1
1
1
1
1
1
1
1
1
1
1
0
1
0
1
0
1
1
0
0
0
0
0
0
0
0
1
0
0
1
1
0
0
1
0
0
1
0
0
0
0
0
0
0
0
1
0
0
0
0
1
0
0
0
0
0
0
0
0
0
1
1
1
1
1
1
1
0
0
0
0
0
0
0
0
1
0
0
0
0
0
1
1
0
1
1
0
1
1
0
1
0
1
1
0
0
0
0
0
0
0
0
0
0
0
0
0
0
0
0
0
1
0
0
0
0
0
1
0
0
1
0
0
0
0
0
0
0
0
0
0
0
0
0
0
0
0
0
0
0
0
0
0
0
0
0
0
0
0
0
1
1
0
0
0
0
0
0
0
0
0
0
1
0
0
0
0
0
0
0
1
1
0
0
1
1
0
0
1
1
0
0
1
1
1
1
0
1
1
1
1
1
1
0
0
0
0
0
0
1
1
0
0
1
0
0
0
1
1
0
1
1
0
0
1
1
1
1
1
1
1
1
1
1
1
1
1
1
1
1
1
1
1
1
1
1
1
1
1
1
1
1
1
1
1
1
1
1
1
1
1
1
1
1
1
1
1
1
1
1
1
1
1
1
0
0
0
0
0
0
1
1
1
0
0
0
1
1
1
1
1
0
1
0
0
1
0
1
1
1
1
1
1
1
1
1
1
1
1
1
1
1
1
1
1
1
1
1
1
1
1
0
1
1
1
0
1
1
0
0
1
1
1
1
1
1
0
1
1
0
0
0
0
0
1
1
1
1
1
0
1
1
1
1
1
1
1
1
1
1
1
1
1
1
1
1
1
1
1
1
1
1
1
1
1
1
1
1
1
1
1
1
1
1
1
1
1
1
1
1
1
1
1
1
1
1
1
1
1
1
1
1
1
1
1
0
1
1
1
1
1
1
1
1
1
1
1
0
0
1
1
1
1
1
1
1
1
1
0
1
1
0
0
1
0
0
1
1
1
1
1
1
1
1
0
0
1
0
0
0
0
0
0
0
0
0
1
1
1
1
0
0
1
1
0
1
1
1
1
0
1
1
1
1
1
1
1
1
1
0
1
1
1
0
0
1
1
1
1
1
1
0
0
0
0
0
1
1
1
1
1
1
1
1
1
1
1
1
1
1
1
1
1
1
1
1
1
1
1
1
        </DataArray>
        <DataArray type="Float64" Name="density" format="ascii">
999.3755079804798
999.4982062028221
1000.81857482505
1000.818574845305
1002.472750901271
1002.472750924626
1000.344381337996
1000.344381340232
1002.1159808107
1002.115980814163
1001.266379945269
999.9338509231484
999.9338509171851
1003.309828122022
1003.309828126946
1000.518271216339
1000.518271206158
1000.939586193823
1000.961000227418
1001.671280609732
999.378965482764
999.3789654675571
999.6726433381307
999.672643344326
998.5806956353346
1000.438879002442
1001.966133812407
1001.533417741565
1000.359294629425
1000.359294649693
1000.881080997043
1000.881081000053
1000.837437047294
1000.837437040162
1000.939586206473
998.562322485687
998.5623224859202
1002.198985766866
1002.198985762913
1002.19898575921
997.2624763742092
1002.693609335096
1000.734851034625
1004.168824411659
998.65589966759
1000.047489565786
999.239625006635
991.7245505859395
1001.91720337063
994.1757471613104
995.9067783428129
998.0992332612357
1002.260990697449
1013.747631938105
1004.753847864917
998.5243661647755
997.2624763715709
995.9179402193324
992.6778728054877
995.8868702909194
997.2624763860304
1002.025428754054
1000.396352001626
1000.647639093512
984.3021226778533
1000.396351992919
1010.471184845927
1001.904583176835
1002.348318800306
1003.332726018356
1000.396352004194
1001.099429835302
993.7400772969141
998.5806956566515
1002.888495851902
998.0926754292715
994.9507626533149
1001.266379935589
1001.266379916187
1002.02542874552
999.7902486948619
1004.698606372708
1003.805368913995
1007.15626293251
1001.518043061136
1001.640323578254
996.3863558144054
1000.79774102188
1000.045552404919
998.5376114440664
1000.797741024545
998.7734119485993
1002.211812088453
1000.045552428058
999.2227809688605
1000.012780069438
999.8920326530396
1000.624616527178
1000.784165401117
999.4724005131458
998.7734119441487
999.7792734420568
999.9713298357591
999.5764343996735
998.89441304391
999.9926296474459
999.6903206462997
997.8937345457224
1000.012780081758
999.2698460173943
999.1634335727632
1000.271795673111
1001.054981993396
995.5886760754679
1000.11058758462
998.8972104401531
1001.230782574824
1008.272395674881
1002.947502956008
1000.097761586183
1000.012780057892
999.9069232836654
1001.032278854406
993.8183206138731
1001.002708224549
999.25530944796
1000.230688101128
1000.455341899832
999.7703725921031
1000.585056289792
1000.23068808262
999.7703725833252
999.2553094431385
1002.230499185234
991.1588221801753
1010.99259754213
995.6257973763187
1000.961000225267
999.9864409763263
1001.184762788901
999.0349678807713
1001.6712805952
1002.098080403005
1002.5645451323
1001.184762792382
1000.482671351379
1001.373338348265
1002.098080408097
999.9864409699608
1000.798809212394
1000.48267134855
1001.671280605851
1000.961000240478
1008.219899349222
1003.828779914778
996.4007822511888
1003.462830535782
1005.563585651333
994.9248419186193
1002.414551604864
1000.438879018659
999.2466212983938
1000.007807833789
998.6782509917638
1001.966133782229
1001.625600155859
1003.406613022886
1000.007807857776
999.2512779956145
1001.700048834855
999.806060600203
1001.625600180448
999.2466213032853
1001.618204259104
1001.700048853139
1001.966133801371
1000.43887901898
1001.296434330809
998.6782509896713
998.6782509697763
995.7318417083615
999.238909680647
1000.44113878463
1000.797400326469
1002.804733900563
998.7351787975301
1001.29601933875
1001.324012971587
1002.163847656862
1009.045959246451
996.5276873739193
1008.841177867638
1008.701919605239
996.6606160708247
998.1272433004178
998.9175111166929
1000.885248437514
1000.564283798807
1001.063931336557
986.5949453123221
996.0083782767658
1001.063931328551
1001.57671359503
1001.576713584257
1001.851272654889
1001.851272658484
1000.559478967621
999.2741999283259
1001.239499579056
998.9437354586848
999.7602710592615
1000.145942416427
1001.181574090354
1001.181574072706
1000.247143856158
1001.053872991171
1003.232693318329
1002.520268166149
1008.666882611548
1000.247143874153
1005.008716483949
1000.709451348926
999.1080239421726
998.1272432969256
999.108023936438
1000.709451346515
1000
1000.680420838143
1004.958777561467
1002.488777537206
1001.09099416994
993.5203425155236
1003.758086080716
995.0142453165865
999.7466621057384
998.8816563652157
998.5679850827411
994.0299376637288
1001.090994156063
1000.194909540256
1000.148746592076
990.4542716156343
1001.23078258379
1000.148746629427
993.8606859829023
1002.004727143302
998.6060063581212
999.2135724336655
998.7562006115896
999.4539118300067
999.4646341945538
999.4646342114307
1000.522496014835
1002.153055225507
1002.15305523815
998.8726834835834
1000.039784950769
1001.903476267447
1001.803955299151
1001.803955294861
1000.564283788022
1000.972396619741
999.6522006953563
998.524366157434
995.9089749448461
1000.047489564253
997.2636506169592
1005.390913309699
999.2741999090279
998.8460793599544
1000.734851034994
999.2227809491977
998.9436589038804
998.9436589262978
997.582100911661
997.5821009085028
1003.052601424883
1002.514821835534
1002.514821854432
989.2649776535393
1000.483196929207
1000.204607839893
1000.441138771863
1000
1004.58718229344
1000.559478995155
999.5764344200132
998.6073504730476
1000.580922262275
1000
1000.972396625817
1000.042291314019
1000.042291312113
1004.244867837213
999.9713298331832
1003.473995833416
1003.473995828005
1004.575126882153
1002.012498922058
1002.012498894193
1003.665965893678
1000.650178313283
998.8944130535169
999.1724057333877
992.7161706286319
999.9926296834838
997.8937345525945
997.0331859210843
997.0331859418269
993.8831608823599
993.8831608773548
999.1634335386162
1000.998672478545
1003.665965890752
995.5722012969159
1005.9098487889
1003.073978000247
1003.073978000904
998.1559709652089
998.5638636144849
1004.244867826785
1000.881737159943
1002.260990721804
999.2598171121905
996.4784320626479
995.3380554627092
999.2389096725358
999.2512779933062
999.1080239281381
999.4724005276715
1000.776643996183
1005.008716462906
1005.008716464363
1000.110587555241
1008.666882624342
1008.666882626301
1002.520268204346
1002.52026817032
1003.232693310601
997.8190283702476
1000.784165402089
1000.753982790935
999.3741371741884
1001.230168363408
999.3741371933136
998.7638884299287
1000.212529898184
998.7638884150814
996.0777366814715
1000.517339808692
999.0256185014335
1001.99282493022
995.1971665884824
1000.110587556278
1000.10383905294
1000.103839033691
1002.693609333343
995.5722013084511
1000.522496002621
998.5243661526454
1000.047489529235
1000.734851020978
1000.797400327692
998.8972104284105
1000.469109792161
1001.363886199812
1001.363886208021
999.3473478147689
999.3473478117784
1000.568411381113
1000.568411383363
1000.082467707167
1000.082467699219
1000.082467713942
999.5108463903462
999.5108463935287
999.5108463929303
1002.191353103528
1002.191353113313
1002.191353112763
1000.647232368956
1000.64723234393
999.5866756411
999.5866756375239
1001.316799606941
999.9394605895848
999.939460595131
1000.14145095631
1000.141450922687
1000.14145095875
998.3554567351115
998.3554567549735
998.3554567664103
1003.67343704778
1003.673437042177
1000.199949286109
1000.199949298749
1000.199949297074
1002.40193379084
1002.401933803148
1000.804417251515
1001.492830826168
1001.492830815096
1001.492830798284
999.7133593776401
999.7133593889869
1002.590111377938
1002.590111373145
998.924642104095
998.9246420896899
998.9246421007272
999.5470058384318
999.5470058229441
998.7937966421069
998.4342456353928
1001.189927425676
1002.260990694782
998.4342456298976
1001.604180566056
1000.327778898002
1000.868212868255
1000.767631795255
1000.767631792894
1002.54953024748
1000.226114823736
1002.012498894655
999.9713298565907
998.8944130491573
999.9926296550277
1000.226114817027
997.893734548133
999.6903206379577
1000.624616556823
999.8920326718834
1000.51733982292
1004.57512690734
999.7939392067022
1000.202073113538
1000.125625956691
999.7939391872795
998.8726834589155
999.6522006924496
997.5878438140054
998.8460793811938
999.2227809427399
999.7792734228149
1000.097063430946
1000.097063453175
1002.325337600173
998.7731550063978
1005.40002595792
998.7731549995561
1000.650178267683
1000.998672471933
1000.881737138321
995.374597764559
998.7731550027983
1003.473995782669
1000.382840624834
1006.463620234514
1011.988049538616
1000.88524842826
1002.110261350654
1000.075850053917
999.4539118136917
1000.382840623188
1000.039784915659
1000
1000.033789094
1001.260546579223
1001.864821219416
1001.654623689132
1000.843993662835
1000.13457225095
999.2598170961658
1000.828821744178
1000.843993678085
999.172405744183
1000.776643982031
1000.564283774483
1000
1001.263559467115
1001.045523502495
1000
1000.6955020054
1001.116772062868
1001.31679960031
1000.868212870742
1000.125625953096
1004.534484322779
999.7980849779065
999.7980849783012
999.8521571555343
999.8521571393273
999.6790365359885
998.0926754519991
998.0926754428273
999.5470468769204
999.5470468413531
1000.351908402193
1000.351908396785
998.0152160433366
998.0516147351368
998.7007053622781
1004.159286932056
1004.159286955996
1000.09776156933
1000.097761601585
1011.83396658263
996.3769208660703
1001.623349167585
1011.833966631943
1001.081602881174
1001.081602893783
994.7344735448985
994.7344735484359
977.6270264148546
977.6270262284303
1005.57047867157
1018.151369081445
998.9411276870986
998.9411277445072
991.495199739323
995.9067783203358
995.9067783296903
1000.661870115018
1000.661870116964
1002.665571348183
1000
1001.771924669414
995.9179402415583
1002.800671128837
1017.967921247374
995.917940242142
1000.115376201514
1000.115376211791
1001.325243370541
992.6778728447217
1000.828821739908
992.6778728244975
1005.400026036505
1003.853893067062
1002.325337567783
994.9248419551628
994.9248419736389
1005.5635856421
1005.563585641932
995.8868702866736
999.3821024143671
1008.219899323251
1010.992597548908
1002.888495833541
1002.888495831319
1010.471184836134
999.0685384998237
1001.30152674582
1000.980734689782
1000.389342200177
1000
1000
1000
1000
1000
1000.113198755488
1000.431800709855
1000.336177140259
1000
1000
1002.665571356976
1001.126484722854
1000.771902758513
1000.520161778671
1000.741729534484
1000.030929840154
1000
1000
1000
1001.122323167615
1000.897908342091
1005.184689167836
999.1708565846322
1001.474248276352
1001.085549443757
1001.518708578858
1000.033723219906
1000
1000.017785745607
1001.533417733295
1001.116772064766
1002.332963146675
1017.33322032155
1000
1000
1000
1000
1000
1000.308710079292
1000.229386218624
1000.113198769015
1000.431800722625
1000.336177143878
1000
1000
1000
1000.000571262964
1001.301526763385
1000.980734699187
1000.389342186915
1000
1000
1000.040252803416
1000
1000.528449318731
1000.048475206292
1000
1000.231356408915
1000
1000
1000
1000.002719023956
1000
1000.478118502425
1000.960790676357
1001.151399614384
1000.802428141287
1000.110679289981
1000.033789094884
1001.260546574205
1001.864821210039
1001.654623688504
1002.015562164504
1001.515744435764
1000.35234297851
1001.263559439735
1001.045523468988
1001.122323125699
1000.897908289219
1000.608524149809
1000.198676359581
1000.129623911434
1001.518708584587
1000.033723202908
1000
1000.017785737959
999.3755078646736
999.3755078809868
998.1559709677517
998.1559709882456
995.3380554475489
996.4784320845197
996.4784321099432
995.3380554565409
1001.992824914274
996.0777366559854
1003.464715846487
995.1971671102436
995.1971673603383
1000.228315838178
1000.228315813812
999.5635672578918
1002.947502916423
1002.947502924752
1002.077934573192
1000
1000
1004.587182398837
1000.580922246598
1000.011328250921
1001.420805771289
993.7400772363152
999.5635672919913
1000
1001.189927442528
1002.800671132445
1000.526701055645
1003.828779910142
1003.828779877595
997.2636505346973
1005.390913072392
989.2649777556448
1000.664419286482
998.9570965354626
1003.805368922698
1003.805368923366
1001.917203357592
1000
1002.488777579189
1004.958777678497
1000.680420821959
993.5203425354366
1003.758086286937
995.0142452709171
999.746661875503
998.143700639747
991.5332047620254
994.175747170304
1000
1001.053872965399
1003.853893069634
986.5949452985092
996.008378243536
1001.239499584001
998.9437354662427
999.760271022107
1000.145942476061
999.0158868522566
1020.460625251016
1003.462830556017
994.9507625989394
1002.004727100597
993.8606859598067
990.4542716342556
994.0299377728023
998.5679852364137
998.8816564193525
1000.097442145248
999.2135723405351
998.6060061960405
1002.656725702212
998.6060059820843
999.2135723162302
1003.462830542096
1006.697822520031
1024.668614229452
1013.732111659034
1014.77256080404
1015.020389948304
1005.400026006164
1002.325337554757
996.9809449871685
1017.333220302404
1017.967921250331
981.0384838894357
1001.316799583892
1000.469109781597
1000
1000.231356414088
1000
1000.048475202594
1000.528449305481
1000.868212873391
1001.604180571536
1001.151399622953
1000.960790680808
1000.478118502061
1000
1000.002719022945
1000.125625951726
1000.202073109385
999.4554853704476
981.0384838387233
1002.015562180527
1001.654623692897
1001.864821216561
1001.260546599073
1000.033789114315
1000
1000.075850051849
1000.608524168133
1008.272395648875
1000.897908303892
1001.122323144069
1001.045523484396
1001.263559472195
1000.828821757029
1000.134572261918
995.3745977768502
1001.310102645639
1000.017785741016
1000
1000.033723213792
1001.518708586811
1001.085549433552
1001.474248280422
1009.045959211127
1008.841177917072
1008.701919662992
999.5649731445646
1001.113461673977
1002.331757650434
1001.324012999242
1001.068616840561
1001.296019362366
994.8286863637913
1001.324012955628
997.3063454200528
1000.011328609685
996.6606161498104