<VTKFile type="PolyData" version="1.0" byte_order="LittleEndian" header_type="UInt64">
  <PolyData>
    <Piece NumberOfPoints="3523" NumberOfVerts="3523">
      <Points>
        <DataArray type="Float64" Name="Points" NumberOfComponents="3" format="ascii">
0.03489701355318801 0.0175913651582056 0.06185238405556205
0.03680605031834485 0.02763999830241306 0.05615377097888024
0.08923583232176498 0.07181806654342496 0.09445753802362657
0.08076416767800526 0.07181806654361032 0.0944575380239034
0.08922779094218959 0.06309276093577081 0.0961269883635348
0.08077220905788217 0.06309276093574383 0.09612698836363565
0.08909169725131448 0.05454329369614253 0.09846017215806192
0.08090830274896182 0.05454329369611999 0.09846017215794953
0.08924838102844272 0.04492057452063494 0.1049181385998069
0.0807516189713544 0.04492057452070519 0.1049181385999798
0.0722624739305507 0.04508742652067921 0.104786740104184
0.08982224592773629 0.07253653372814321 0.08656244784118787
0.08017775407224387 0.07253653372796864 0.08656244784095712
0.08970377409264284 0.06265355322959593 0.08774922556178337
0.08029622590726036 0.0626535532295089 0.08774922556177485
0.0894712357884121 0.05470314429620597 0.08959634535148252
0.08052876421181789 0.05470314429627515 0.0895963453517757
0.08028850142358267 0.04474903678481819 0.09672789677063584
0.07257221194467849 0.04529646311847758 0.09599666728165054
0.06350806864494338 0.045011476556903 0.09791804956995234
0.05573970775422563 0.046018355657508 0.09840888499204355
0.04623852118646393 0.0462385211858046 0.1041145946106983
0.08933848477704552 0.05403797093121934 0.07986669507530736
0.08066151522294501 0.05403797093110856 0.07986669507539539
0.08053390363880218 0.04480651278416515 0.08622429884191354
0.07214732019342965 0.04490730169439509 0.08657250867752966
0.06347482416779289 0.04517043503023802 0.08756118404801323
0.08955125102137655 0.02678988749693795 0.1051958584165918
0.05539769886594163 0.04576722783192014 0.08914541134101379
0.04621571321403526 0.046215713214158 0.09457974155676101
0.04597488346771653 0.02878631872273312 0.1261605078986261
0.0456368214471537 0.02772836638859109 0.1187141261311762
0.04601863299784829 0.04601863299854159 0.08613851197083099
0.08965147258092107 0.08034852741902379 0.0861052780943556
0.08971149857614577 0.04474903678485234 0.09672789677020933
0.08937824485729229 0.08062175514262733 0.09440932727878723
0.08950185522311219 0.08049814477690295 0.0753342668159695
0.08984930885327622 0.08015069114679879 0.06728638478324817
0.08959068471096703 0.08040931528856166 0.05684641271838245
0.08988054354730945 0.0801194564526574 0.04861801239496928
0.08941500007342573 0.08058499992732823 0.03766700691430621
0.08972957582232949 0.08027042417726256 0.00797213563374123
0.08952974315170464 0.08047025684773398 0.0175909435463944
0.08936878583235072 0.0806312141670185 0.02912136842088734
0.08032647292614202 0.02626491859213725 0.07964410564128722
0.07177955051779206 0.03601837838463258 0.07932463994765325
0.05530012153363478 0.03717757601331292 0.03796943967911463
0.08946791131464331 0.03639835798918116 0.09679489946803985
0.06304832726541978 0.03605419692399481 0.08037971493532314
0.08047244270877403 0.01778513318528172 0.08391866799289779
0.06332802190953259 0.03714512641398057 0.03565617637966193
0.08045122918731448 0.03736104081956941 0.03326473036683034
0.07206203416039567 0.03725857874035356 0.0341012522709702
0.05438245811173092 0.03636311187673875 0.06463169920837139
0.05704555422388979 0.04586409635218425 0.02681348420153008
0.08048987967334457 0.0442366445025876 0.02248620066150829
0.0635005254763957 0.0448967258921061 0.02472738170400648
0.0732773088666018 0.04443154482124188 0.02322670172432317
0.07127632049794166 0.01769728975612844 0.0846759525089583
0.07157199561857829 0.02628213245590539 0.0803212703052273
0.08053586952321533 0.02615861727531667 0.04515898707172546
0.08041467904851042 0.02627228129912134 0.0533508292507749
0.05441459244859753 0.03650522917235631 0.08194256308397008
0.06224415685823106 0.02633137252751263 0.08113853223526341
0.06286623344463611 0.03590053893285424 0.06299920543298164
0.07165088536574646 0.03596469866671827 0.06194648642202943
0.08112583336465425 0.05781377228489092 0.00140648165135081
0.08054766916986976 0.03604753936409164 0.06168569013441041
0.06216539619652597 0.01761626598247789 0.08568422153117028
0.05278988104225993 0.01750603423880834 0.08748624844528607
0.04376201867033425 0.01751948128203333 0.09065341375487258
0.08036748226731115 0.04737256933150698 0.01173963682244346
0.0805022740928938 0.01806424054384687 0.07526015041465987
0.08041223856981645 0.02667689416211579 0.0367752468292117
0.04372902895306124 0.01770167399084717 0.09916861896141461
0.0460298960779771 0.04602989607804062 0.05869162698836978
0.08086190065071952 0.03829621279895868 0.02498850821014118
0.08887416663553627 0.05781377228518927 0.001406481651613262
0.04489461568736165 0.02685067140999692 0.06846621341909583
0.05365170740187471 0.02629629453707514 0.06562128035773857
0.0622531486920978 0.02628353673825204 0.06359309575851232
0.04499539280910767 0.02695604938541145 0.08548706241193187
0.04631424475442138 0.03766745105662949 0.04202630091939529
0.0460549390867231 0.04605493908621298 0.03317600055179064
0.0804903294606393 0.0221800599236675 0.0175472370155875
0.08946609636083584 0.04480651278428036 0.08622429884228393
0.08082946706807816 0.05732597857579661 0.0133691075704024
0.08917053293152835 0.05732597857634979 0.01336910757066585
0.08028806340161899 0.06381785089339198 0.009452849176951869
0.08971193659809561 0.06381785089368551 0.009452849176050642
0.08069702471995309 0.07302474892797543 0.008128667882623158
0.08930297527935019 0.07302474892765677 0.008128667883330021
0.08064133978769593 0.07304046545850641 0.01791544865405822
0.04494760290005664 0.02684905346349915 0.07668343823995949
0.04623181082409627 0.03748355780898824 0.05133603908505725
0.04612249214999797 0.0461224921505956 0.0415799785753228
0.08935866021214355 0.07304046545781759 0.01791544865429894
0.0977375260693316 0.04508742652092085 0.1047867401039841
0.1249125734791424 0.07226247393036581 0.1047867401039944
0.1250794254796579 0.080751618971245 0.1049181386003348
0.08057024480455693 0.06375863682370801 0.02035690378629627
0.04627294567108411 0.037369831521468 0.05977829421581046
0.04610661048805713 0.04610661048699637 0.05067441853217722
0.08942975519583002 0.06375863682377805 0.02035690378590686
0.05543235313744075 0.04567159342646741 0.05326111311875308
0.06342345063048203 0.04509384975135564 0.05135637971815139
0.08049895875271156 0.04486742387929318 0.04954028323560319
0.08041105654069461 0.03142495266547678 0.01028062738900714
0.07242629769438874 0.04493990326531912 0.04991769036895338
0.08047678896004387 0.01803136824642677 0.06640140579536391
0.08059467174149723 0.04802853681915831 0.00239325937081121
0.04521277408298235 0.02706751963581799 0.09353176010021247
0.08107933787071969 0.04212722116204873 0.01601345405908681
0.08938608238083268 0.05456579043779541 0.04250275761798964
0.1146485651778441 0.05535143482195912 0.1016072793173434
0.05384112671814845 0.02643213642191915 0.09114788949148456
0.08958588066667016 0.06287574659638671 0.03979414212482166
0.08936179076409531 0.07264536377215441 0.03817990583056386
0.06233449827525753 0.02634819784301268 0.08938354976368067
0.08061391761942069 0.05456579043796533 0.0425027576182821
0.07143572022211822 0.02628163013089709 0.08885524931599732
0.06216648608564687 0.01770379667131474 0.09418658417599711
0.1434479436979067 0.07154609549628604 0.09747665572713891
0.1434476010083284 0.06246894058162264 0.09809886445813042
0.143335808136035 0.05397184161961344 0.09973637874843849
0.1426302186411895 0.04517377601156893 0.1022199749710714
0.08041411933288239 0.0628757465968809 0.03979414212479222
0.08033983616748235 0.02623922961614604 0.08833643960881535
0.04627216322688488 0.0374037797502481 0.07708708576756222
0.08968901808075269 0.06256638863668787 0.03042616452594255
0.1335221424665728 0.07201386537915966 0.09696689056555337
0.05463446523551776 0.03639139212971097 0.07359603839157441
0.06315387240960714 0.03604412806326467 0.07206499318530096
0.08050632374954821 0.03595353579718501 0.07055447146832093
0.07199362467450542 0.03599168394950625 0.07083033011413595
0.04383030666146245 0.01789588705891581 0.10760834295783
0.08063820923561775 0.07264536377133676 0.03817990583081383
0.08048964086969125 0.04466119761644452 0.04197599816672255
0.1323534446120108 0.0465322495895216 0.09465876098494573
0.08929073012110225 0.05543317012525762 0.03385659889743902
0.07263564533956947 0.04457496322916248 0.04240196367992569
0.06349492272469706 0.04497832079530013 0.04356039143178331
0.05580961496799414 0.04583962668577043 0.0451026163546026
0.08094112207441249 0.05647808887287306 0.02374895608675126
0.08905887792519994 0.05647808887274847 0.02374895608713849
0.07127451243671717 0.01780183547309915 0.09331896284277977
0.08049166721192864 0.01790387627303337 0.09271898497363688
0.08018207480458123 0.07234600054348561 0.04887743051479163
0.0804236475499394 0.0451453474706722 0.03137988326916782
0.08067202984791473 0.02327274632425671 0.02338114249874038
0.05356839761873444 0.02624672346018996 0.07408632389992341
0.04622681428304223 0.03717163856218168 0.06851664443498141
0.07273371808592977 0.04494338032319534 0.03189172086579734
0.05270530700483617 0.01759908560741818 0.0960809359265463
0.06336829693918951 0.04522314262425996 0.03329040415286373
0.05617378356704129 0.04591536958541579 0.03533031625456801
0.08037347960370843 0.02629376310220724 0.06236112372092171
0.07188049293447765 0.0364172548927713 0.05278032166882297
0.07149533913937074 0.02617179181770354 0.06296201784237283
0.1153047821080082 0.07233328106495124 0.09850062423953421
0.1067608963228686 0.0723945045205607 0.09592435295660708
0.09792763171629268 0.07207236828318109 0.09476725961925037
0.1148298689771663 0.06362193928759502 0.09956225392289596
[...]
      <PointData>
        <DataArray type="UInt64" Name="type" format="ascii">
1
1
1
1
1
1
1
1
1
1
1
1
1
1
1
1
1
1
1
1
1
1
1
1
1
1
1
1
1
1
1
1
1
1
1
1
1
1
1
1
1
1
1
1
1
1
1
1
1
1
1
1
1
1
1
1
1
1
1
1
1
1
1
1
1
1
1
1
1
1
1
1
1
1
1
1
1
1
1
1
1
1
1
1
1
1
1
1
1
1
1
1
1
1
1
1
1
1
1
1
1
1
1
1
1
1
1
1
1
1
1
1
1
1
1
1
1
1
1
1
1
1
1
1
1
1
1
1
1
1
1
1
1
1
1
1
1
1
1
1
1
1
1
1
1
1
1
1
1
1
1
1
1
1
1
1
1
1
1
1
1
1
1
1
1
1
1
1
1
1
1
1
1
1
1
1
1
1
1
1
1
1
1
1
1
1
1
1
1
1
1
1
1
1
1
1
1
1
1
1
1
1
1
1
1
1
1
1
1
1
1
1
1
1
1
1
1
1
1
1
1
1
1
1
1
1
1
1
1
1
1
1
1
1
1
1
1
1
1
1
1
1
1
1
1
1
1
1
1
1
1
1
1
1
1
1
1
1
1
1
0
1
1
1
1
1
1
1
1
1
1
0
0
0
0
1
1
1
1
1
1
1
1
1
1
1
1
1
1
1
1
1
1
1
1
1
1
1
1
1
1
1
1
1
1
1
1
1
1
1
1
1
1
1
1
1
1
1
1
1
1
1
1
1
1
1
1
1
1
1
1
1
1
1
0
0
1
1
1
0
0
1
1
1
1
1
1
1
1
1
1
1
1
1
1
1
1
1
1
1
1
1
1
1
1
1
1
1
1
1
1
1
1
1
1
1
1
1
1
1
1
1
1
1
1
1
1
1
1
1
1
1
1
1
1
1
1
1
1
1
1
1
1
1
1
1
1
1
1
1
1
1
1
1
1
1
1
1
1
0
1
1
1
1
1
1
1
1
1
1
1
1
1
1
1
1
0
0
0
0
0
0
0
0
0
0
0
0
1
1
1
1
0
0
1
1
1
1
1
1
1
1
1
1
1
1
1
1
1
1
1
1
1
1
1
1
1
1
1
1
1
1
0
0
1
1
1
1
1
1
1
1
0
1
1
0
1
0
0
0
1
0
1
1
1
1
1
1
1
1
1
1
1
1
0
0
0
1
1
1
1
1
1
0
0
1
1
1
1
1
1
1
1
1
1
1
1
1
1
1
1
0
1
1
1
0
0
0
0
0
1
0
1
0
1
1
1
1
0
0
0
0
1
1
0
0
0
1
1
1
1
1
1
1
1
1
1
1
1
1
1
1
1
1
1
1
1
1
1
1
1
1
1
1
1
1
1
1
1
1
1
1
1
1
1
1
1
1
1
1
1
1
1
1
0
0
1
1
1
1
1
0
0
1
1
1
1
1
1
1
0
1
1
0
1
1
1
1
1
1
1
1
1
1
1
1
1
1
1
1
1
1
1
1
0
0
0
0
0
0
0
0
0
0
0
0
0
0
0
0
0
0
0
0
0
0
1
0
0
1
1
0
0
0
0
0
0
1
1
1
0
1
0
0
0
0
0
0
0
0
0
0
0
0
0
0
0
0
0
0
0
0
0
0
0
0
0
0
0
0
0
0
0
0
0
0
0
0
0
0
0
0
0
0
0
0
0
0
0
0
0
0
0
0
0
1
1
1
1
1
1
1
1
1
1
1
1
1
1
1
1
1
1
1
1
1
1
1
1
1
1
0
0
0
0
1
1
1
1
1
1
0
0
0
1
1
1
1
1
1
1
1
1
1
1
1
1
1
1
1
1
1
1
1
0
0
0
0
1
1
1
1
1
1
1
1
1
0
0
0
1
1
1
1
1
1
1
1
1
1
1
1
1
1
1
1
1
1
1
1
1
1
1
1
1
1
1
1
1
1
1
1
1
1
1
0
0
0
0
1
0
1
1
1
1
0
0
1
0
0
0
0
0
0
0
0
0
0
0
0
0
0
0
0
1
1
1
1
0
0
0
0
0
0
0
0
1
0
0
0
0
0
0
1
1
0
0
0
0
0
0
0
1
1
1
1
1
1
1
1
1
1
1
1
1
1
1
1
1
1
1
1
1
1
1
1
1
1
1
1
1
1
1
1
1
1
1
1
1
1
1
1
1
1
1
1
1
1
1
1
1
1
1
1
1
1
1
1
0
0
0
0
0
0
0
0
0
0
0
0
0
0
0
0
0
0
0
0
0
0
0
0
0
0
0
0
0
0
0
0
0
0
0
0
0
0
0
1
0
0
0
0
0
0
0
1
0
0
0
0
0
0
0
1
0
0
0
0
0
0
0
1
0
0
0
1
1
1
1
1
1
1
1
1
1
1
1
1
1
1
1
1
1
1
1
1
1
1
1
1
1
1
1
1
1
1
1
1
1
1
1
1
1
1
1
1
1
1
1
1
1
1
1
1
1
1
1
1
1
1
1
1
1
1
1
1
1
1
1
1
1
1
1
1
1
1
1
1
1
1
1
1
1
1
1
1
1
1
1
1
1
1
1
1
1
1
1
1
1
1
1
1
1
1
1
1
1
1
1
1
1
1
1
1
1
1
1
1
1
1
1
1
1
1
1
1
1
1
1
1
1
1
1
1
1
1
1
1
1
1
1
1
1
1
1
1
1
1
1
1
1
1
1
1
1
1
1
1
1
1
1
1
1
1
1
1
1
1
1
1
1
1
1
1
1
1
1
1
1
1
1
1
0
0
0
0
1
1
1
1
1
1
1
1
0
1
1
1
1
1
1
1
1
1
1
1
1
1
1
1
1
1
1
1
1
1
1
1
1
1
1
1
1
1
1
1
1
1
1
1
1
1
1
1
1
1
1
1
1
1
1
1
1
1
1
0
1
1
1
1
1
0
0
1
1
1
1
1
1
1
1
1
0
0
1
1
1
1
1
1
1
1
1
1
1
1
1
1
1
1
1
1
1
1
1
1
1
1
1
1
1
1
1
1
1
1
1
1
1
1
1
1
1
1
1
1
1
1
1
1
1
1
1
1
1
1
1
1
1
1
1
1
1
1
1
1
1
1
1
1
1
1
1
1
1
1
1
1
1
1
1
1
1
1
1
1
1
1
1
1
1
0
0
0
1
0
0
0
1
0
0
0
0
0
0
0
0
0
0
0
1
0
0
0
0
1
0
1
0
0
0
0
0
0
0
0
1
0
0
0
0
0
0
0
0
1
0
0
0
0
0
0
0
0
1
0
0
0
0
0
0
0
0
0
0
0
0
0
0
0
0
1
0
0
1
1
1
1
1
1
1
0
0
0
1
1
1
0
0
0
0
0
0
0
0
0
0
0
1
0
0
0
0
0
0
0
0
0
0
0
0
0
0
0
0
1
0
0
0
0
0
0
0
0
1
1
1
1
1
1
1
1
1
1
1
1
1
1
1
0
1
1
0
0
1
1
1
1
0
0
0
1
1
1
0
0
0
0
0
0
0
0
1
1
1
1
1
1
0
1
1
1
1
0
0
1
1
1
1
0
0
1
0
0
1
1
1
1
0
1
1
1
1
0
0
1
1
0
1
1
1
1
1
1
0
0
1
1
0
1
1
0
1
1
1
1
1
1
1
1
1
1
1
1
1
0
0
1
1
1
1
1
1
1
1
1
1
1
1
1
1
1
1
0
1
1
1
1
1
1
1
0
1
1
1
1
1
1
1
1
1
1
1
1
1
1
1
1
1
1
1
1
1
1
1
1
1
0
1
1
1
1
0
1
1
1
1
1
1
1
1
1
1
1
1
1
1
1
1
1
1
1
1
1
1
1
1
1
1
1
1
1
1
1
1
1
1
1
1
1
1
1
1
1
1
1
1
1
1
1
1
1
1
1
1
1
1
1
1
1
1
1
1
1
1
1
1
1
1
1
1
1
1
1
1
1
1
1
1
1
1
1
1
1
1
1
1
1
1
1
1
1
1
1
1
1
1
1
1
1
1
1
1
1
1
1
1
1
1
1
1
0
0
1
0
1
1
1
1
1
1
1
1
1
1
1
1
1
1
1
1
1
1
1
1
1
1
1
1
1
1
1
1
1
1
1
1
1
1
1
1
1
1
1
0
1
1
1
0
1
1
1
1
1
1
1
1
1
1
1
1
1
1
1
1
1
1
1
0
0
0
0
0
0
0
1
1
1
1
1
1
1
1
1
1
1
1
1
1
1
1
1
1
1
1
1
1
1
1
1
1
1
1
1
1
1
1
1
1
1
1
1
1
1
1
1
1
1
1
1
1
1
1
1
1
1
1
1
1
1
1
1
1
1
1
1
1
1
1
1
1
1
1
1
1
1
1
1
1
1
1
1
1
1
1
1
1
1
1
1
1
1
1
1
1
1
1
1
1
1
1
1
1
1
1
1
1
1
1
1
1
1
1
1
1
1
1
1
1
1
1
1
1
1
1
1
1
1
1
1
1
1
1
1
1
1
1
1
1
1
1
1
1
1
1
1
1
1
1
1
1
1
1
1
1
1
1
1
1
1
1
1
1
1
1
1
1
1
1
1
1
1
1
1
1
1
1
1
1
1
1
1
0
0
0
0
0
0
0
0
0
0
0
0
1
1
1
1
1
1
1
1
1
1
1
1
1
1
1
1
1
1
1
1
1
1
1
1
1
1
1
1
1
1
1
1
1
1
1
1
1
1
1
1
1
1
1
1
1
1
1
1
1
1
1
1
1
1
1
1
1
1
1
1
1
1
1
1
1
1
1
1
1
1
1
1
1
1
1
1
1
1
1
1
1
1
1
1
1
1
1
1
1
1
1
1
1
1
1
0
0
0
0
0
0
0
0
0
0
0
0
0
0
0
0
0
0
0
0
0
1
1
1
1
1
1
1
1
1
1
1
1
1
1
1
1
1
1
1
1
1
1
1
1
1
1
1
1
1
1
1
1
1
1
1
1
1
1
1
1
1
1
1
1
1
1
1
1
1
1
1
1
1
1
1
1
1
1
1
1
1
1
1
1
1
1
1
1
1
1
1
1
1
1
1
1
1
1
1
1
1
1
1
1
1
1
1
1
1
1
1
1
1
1
1
1
1
1
1
1
1
1
1
1
1
1
1
1
1
1
1
1
1
1
1
1
1
1
1
1
1
1
1
1
1
1
1
1
1
1
1
1
1
1
1
1
1
1
1
1
1
1
1
1
1
1
1
1
1
1
1
1
1
1
1
1
1
1
1
1
1
1
1
1
1
1
1
1
1
1
1
1
1
1
1
1
1
1
1
1
1
1
1
1
1
1
1
1
1
1
1
1
1
1
1
1
1
1
1
1
1
1
1
1
1
1
1
1
1
1
1
1
1
1
1
1
1
1
1
1
1
1
1
1
1
1
1
1
1
1
1
1
1
1
1
1
1
1
1
1
1
1
1
1
1
1
1
1
1
0
0
0
0
0
0
0
0
0
0
0
0
1
1
1
1
1
1
1
1
1
1
1
1
1
1
1
1
1
1
1
1
1
1
1
1
1
0
0
0
0
0
0
0
0
0
0
0
0
1
1
1
1
1
1
1
1
1
1
1
1
1
1
1
1
1
1
1
1
1
1
1
1
1
1
1
1
1
1
1
1
1
1
1
1
1
1
1
1
1
1
1
1
1
1
1
1
1
1
1
0
0
0
0
1
0
0
0
0
0
0
0
1
0
1
1
1
1
1
1
1
1
1
1
1
1
1
1
1
1
1
1
1
1
1
1
1
1
1
1
1
1
1
1
1
1
1
1
1
1
1
1
1
1
1
1
1
1
1
1
1
1
1
1
1
1
1
1
1
1
1
1
1
1
1
1
1
1
1
1
1
1
1
1
1
1
1
1
1
1
1
1
1
1
1
1
1
1
1
1
1
0
0
0
1
1
1
1
1
1
1
1
1
1
1
1
1
1
1
1
1
1
1
1
0
0
1
1
1
1
1
1
1
1
1
1
1
1
1
1
0
0
0
1
1
0
1
1
1
1
1
1
1
1
1
1
1
1
1
1
1
1
1
1
1
1
1
1
1
1
1
1
1
1
1
1
1
1
1
1
1
1
1
1
1
0
1
1
1
1
1
1
0
0
0
0
0
0
0
0
1
1
1
1
1
1
1
1
1
1
1
1
1
1
1
1
1
1
1
1
1
1
1
1
1
1
1
1
1
1
1
1
1
1
0
0
0
0
0
0
1
1
1
1
1
1
1
1
1
0
0
0
0
0
1
1
0
0
0
1
0
0
0
0
0
0
0
0
1
0
0
0
0
0
0
0
0
0
0
0
0
0
0
0
0
0
0
0
0
0
0
0
1
0
0
0
0
0
0
0
0
0
0
0
0
1
1
0
0
0
0
0
1
0
0
1
1
0
0
1
0
0
0
0
0
0
0
0
0
0
0
0
0
0
0
1
1
1
1
0
0
0
0
0
0
1
0
0
0
0
0
0
0
1
0
0
0
0
0
0
0
0
0
1
0
1
1
1
1
1
0
1
0
0
1
0
0
0
0
0
1
0
0
0
0
0
0
1
1
0
0
1
1
0
0
1
0
1
1
1
1
1
1
1
1
1
1
1
1
1
1
1
1
1
1
1
1
1
1
1
1
0
1
1
1
1
1
1
1
1
1
1
1
1
1
1
1
1
1
1
1
1
1
1
1
1
1
1
1
1
1
1
1
1
1
1
1
1
1
0
0
0
0
1
1
1
0
0
0
0
0
0
0
0
0
0
0
0
0
0
1
1
1
1
1
1
0
0
0
0
1
1
1
1
1
0
1
0
1
1
1
1
1
1
1
1
0
0
1
0
1
0
1
1
1
1
0
0
0
1
0
1
0
1
1
1
1
1
1
1
0
1
1
1
0
0
0
1
1
1
1
1
1
1
1
1
1
1
1
1
0
1
1
1
1
1
0
1
1
1
1
1
1
1
1
1
1
1
1
1
1
0
0
1
1
1
1
1
1
1
1
1
1
1
1
1
1
1
1
1
1
1
1
1
1
1
1
1
1
1
1
1
1
1
1
1
1
1
1
1
1
1
1
1
1
1
1
1
1
1
1
1
1
1
1
1
1
1
1
1
1
1
1
1
1
1
1
1
1
1
1
1
1
1
1
1
1
1
1
1
1
1
1
1
1
1
1
1
1
1
1
1
1
1
1
1
1
1
1
1
1
1
1
1
1
1
1
1
1
1
1
1
1
1
1
1
1
1
1
1
1
1
1
1
1
1
1
1
1
1
1
1
1
1
1
1
1
1
1
1
1
1
1
1
1
1
1
1
1
1
1
1
1
1
1
1
1
1
1
1
1
1
1
1
1
1
1
1
1
1
1
1
1
1
1
1
1
1
1
1
1
1
1
1
1
0
1
1
1
1
1
1
1
1
1
0
1
0
0
0
1
1
1
1
1
1
1
1
1
1
1
1
1
1
1
1
1
1
1
1
0
1
1
1
1
1
1
0
0
0
0
0
0
0
0
0
0
0
1
1
1
1
1
1
0
1
0
0
0
0
0
0
0
0
0
0
0
0
0
0
0
0
0
0
0
0
0
0
0
0
0
0
0
0
0
0
0
0
1
1
1
1
1
1
1
0
0
0
0
0
0
0
0
0
0
0
0
0
0
0
0
0
0
0
0
0
1
1
1
0
0
0
1
1
1
1
1
1
1
1
1
1
1
1
1
1
1
1
1
1
1
1
1
1
1
1
1
1
1
1
1
1
1
1
1
1
1
1
1
1
1
1
1
1
1
1
1
1
1
1
1
1
1
1
1
1
1
1
1
1
1
1
1
1
1
1
1
1
1
1
1
1
1
1
1
1
1
1
1
1
1
1
1
1
1
1
1
1
1
1
1
1
1
1
1
1
1
1
1
1
1
1
1
1
1
1
1
1
1
1
1
1
1
1
1
1
1
1
1
1
1
1
1
1
1
1
1
1
1
1
1
1
1
1
1
1
1
1
1
1
1
1
1
1
        </DataArray>
        <DataArray type="Float64" Name="density" format="ascii">
1000.680537111037
1000.109461152955
1001.109142048087
1001.109142047494
1000.959322169546
1000.959322165327
999.4127033360189
999.4127033324336
1001.220690002868
1001.22069000396
999.7753052542899
1002.277105803345
1002.277105801202
1002.165319286139
1002.165319285997
1001.832017879095
1001.832017875775
1001.511218919879
1001.05033246636
999.8685478169546
999.0821917330946
1002.276375330979
998.510812713317
998.5108127167308
999.6032351795817
1001.266593405284
1001.781845909056
1000.628748775111
1000.105711044468
999.8826765100591
1000.20156650061
1000.514544150326
1000.267960079187
1002.840735063496
1001.511218920983
999.458040074979
999.4545020824895
998.7051809715435
1000.556632522924
1002.724752832916
1004.941156804946
1001.959650235872
997.2004311371347
997.9629289293445
1001.086676649504
999.2591496988248
996.2921884842195
1001.590391049957
999.8373487187745
999.1358958634961
998.016827541115
996.3948177447418
996.3103908773954
1000.805156521055
1004.562788191275
1003.002510435959
1007.557161474991
1003.071871880348
999.3140241687556
1000.125831775211
1002.105013617642
1002.26869483812
1000.422149516613
999.9548394044473
1000.416669471905
999.4507269525843
1001.096522351816
998.7753848001919
1000.245128234282
1001.216761784817
999.7346044075709
1001.25370763308
1002.243692581286
1001.053790027937
999.0112828151475
1003.339540365622
997.7128630426994
1001.096522350452
1000.431683690285
1000.617347087341
1001.355468467273
1000.856104786558
1000.876988987018
1012.262111405854
998.2342030056966
999.6032351794911
999.4247260562256
999.4247260578995
1004.063635618369
1004.063635615337
999.4500609882634
999.4500609882988
1001.012104812548
1000.758851765648
999.7422569918217
1001.397734364331
1001.012104809586
999.7753052504358
999.7753052512337
1001.220690001163
1002.639982779175
1001.301800811337
1001.174389814443
1002.639982784886
1001.817777129266
1002.64807269849
1002.769402810659
990.9554038924342
1002.722323002208
999.8182821911663
1000.390817546203
1000.078416902536
1006.380582965984
1000.667040968023
997.1163232626463
1001.676096523798
1002.218721661417
998.4993491157213
1001.848641111956
1000.667040966847
1000.838854537026
1001.394158994889
1001.579169814643
1001.245335498656
1000.252561856505
999.854638009053
1002.218721669419
999.2155673591454
1000.200871772481
1005.860730154592
1001.769385768235
1000.252353110572
999.8721104342726
1002.291582561897
1000.952640015788
1000.087831135832
998.4993491116637
1000.815823176734
999.7090859751413
999.3735293312728
1001.891181006307
1003.067066238061
998.857823262698
994.2840765389209
994.28407654124
1000.690128590818
998.9215371169061
1000.657755712717
1001.840152923544
1008.386555398432
999.7954741068057
1000.515334717812
1003.072803831452
1000.014122967862
1007.206003661446
1002.950074707526
1000.167443324934
999.8438253577217
1001.587663517222
998.1106967199491
1000.626410832901
1001.412956607632
997.5753933684836
999.9502541278426
1000.626410839853
997.5753933722254
998.1106967271788
1002.986532565307
1000.910490729435
999.9043460968555
999.2228089159455
1001.050332467717
1002.506015989462
1002.706344835917
1001.800545533352
999.868547811701
1002.376266412383
1003.98832669958
1002.706344837403
999.0821917325304
999.2062248008174
1002.376266416543
1002.506015994357
1002.276375336294
999.0821917373796
999.8685478157485
1001.050332467521
1000.331594131458
998.9801283783601
998.4099109771115
1000.701690376279
1001.44956340985
1000.484204836123
998.4693525876157
999.3515401600345
1001.266593409301
999.0726470908755
997.691540173817
999.4618647353175
1001.781845911282
1000.967037702465
998.7033263696311
997.6915401699531
1000.638662539188
1000.105711039112
1001.747998519309
1000.967037697665
999.0726470874669
999.8826765171589
1000.105711047851
1001.781845914853
1001.266593408803
1001.117954637524
1001.576565738923
1000.576707814236
1001.387947342731
999.5743127870497
1000.421232839852
998.409910977004
1005.860730155774
999.3711146453926
999.3735293283164
1000.267960072299
997.7186810862063
1001.541894644111
996.8875235826091
1002.996155322655
1004.113268402817
1000.341476038552
998.9000278699857
999.4043518566598
1001.725850149115
1000.64383317643
1001.104041673742
1001.003738268049
1004.161846782221
1002.341141998396
998.5144102873677
1000.818647866366
1000.783102396024
1000.579938452547
1000.252561861531
1006.593982186799
1000.683332289538
991.1527628079764
993.8269834041625
999.412703333587
998.5144102918421
1000.628748777123
1002.165319284422
1000.818647864826
1000.647572167409
1001.175045735773
994.6832249032757
997.6577766533196
999.7687518830461
1000.248081233685
1002.277105804281
999.6032351812232
1001.51121892204
1000
1000.779760372749
1000.279863436944
1000.356616250788
1001.109142047144
1000.866493280892
999.8546380077469
1000.051628333501
998.5144102920506
1000.051628333257
1000.638662537297
1000
1002.173632819047
1005.468285517636
1002.055785360197
994.1185306964971
998.5108127138568
992.1214532536596
992.4568462653249
994.9817961269065
996.4384530697178
999.8118597887805
1000.922410829084
1001.231394728565
1001.83201787531
1000.959322166764
1001.59039105191
997.3764624505278
1000.65775571029
999.5743127889691
996.0731708537895
994.9043613709131
1010.063401931922
990.3023151424067
998.0349685408368
997.941243086559
994.6992557838264
997.228776665804
999.3515401581213
1002.026326908009
1002.026326906018
999.4618647315305
1001.816620730915
1001.816620731334
1000.078416901717
999.8469239678747
1000.31772305032
1000.487891675989
1000.487891679853
1000.579938450643
1001.852858380548
1006.137420603278
1001.676096523212
1000.42214951764
1004.269733449176
1000.871188092665
999.8373487192689
994.4471949450431
992.5650336358656
1001.175045730343
1001.848641117186
999.2591496924599
1000.838854538282
1000.703732221015
1000.703732220075
1000.987601752841
1000.987601753138
1002.045333164323
1002.107530677408
1002.107530679596
994.8520070002236
1001.286541969048
1001.40196355829
1000.421232842395
1000.221605480375
1000.176213383781
1000.647572169649
1001.769385766038
1001.461703851371
1000.024232737207
1000
1001.852858384548
1000.813729638087
1000.813729630699
1001.631875170149
1000.200871769502
999.9077654101403
999.907765411621
1002.549189460864
1000.747772184916
1000.74777218634
1000.604343711668
1000.856104787145
1000.25235311109
999.0112828172743
999.1140796697362
999.8721104261538
1000.952640011262
999.7434810473148
999.7434810546845
999.6868804076579
999.6868804105554
999.7090859791844
1001.576565744814
1000.604343708588
999.8178578412439
1001.311956673796
1000.978190929018
1000.978190930313
997.864446172719
1001.917569079682
1001.631875179261
999.9548394103793
1000.125831775005
1000.014122964569
999.946262364219
1001.108837191343
999.5743127963575
1000.638662539904
1000.051628328287
999.8546380048786
1001.394158995559
1000.866493291331
1000.866493293329
1000.690128594448
1000.356616251919
1000.356616249775
1000.279863437313
1000.279863429511
1000.779760369142
1000.75174837839
1000.252561860389
999.8386506109289
1000.829943151463
1000.261145244429
1000.829943146316
1000.335670538136
1000.046775647176
1000.335670534848
1001.099890742685
1000.70302315163
1000.177732054683
1000.922985344705
997.2611305100717
1013.536999030913
1007.943722796448
1000.690128598788
1000.258826825902
995.0519328212137
991.729529500578
1000.258826827798
1001.086676646845
999.8178578394917
999.4618647382797
1000.422149518043
999.8373487197238
999.2591496945538
999.3711146411921
998.921537120772
1000.3027992785
1001.253707642567
1001.096522343983
1000.390817555519
999.4247260624209
1001.840152939462
994.2840765478361
1002.639982784331
1001.012104804142
999.450060984494
1004.063635611882
1003.002510448614
997.8878590562081
997.9448339832909
1006.307231325042
1000.922985342874
990.955403903355
1000.422218859593
1000.153537563473
1000.302799283168
1000.687701823345
1000
1002.058278517515
1003.26656876315
1000
1000
1001.344012004862
1000
1009.200919503285
994.9043613884514
991.1527628177498
998.2342030302328
998.1586785570231
1000.36105948268
1000.919058158275
999.5010363372887
1008.386555406104
1001.053790034563
1006.380582980334
999.8182821835197
1002.105013627802
997.712863060207
996.3948177600718
1002.268694835201
1002.243692584794
999.9043461043477
998.4099109697165
1005.860730151275
999.3735293346959
1000.16744331524
1000.81582318282
999.1358958655439
999.2228089131668
998.4993491168876
1002.218721658327
1000.667040960596
1002.769402800943
1002.986532559674
998.7753847936773
1000.657755715941
1001.117954633467
1001.387947331683
1000.779760361356
1001.428919208638
1001.280051300763
999.709085970808
998.9215371153936
1001.733406626345
999.3962018113336
998.1254190372321
997.4853135126626
1001.08667664949
993.5646376612877
1001.660297759336
1000.125831772181
999.8469239766795
1000.687701816653
1001.852858383728
1000.218303336974
1000.286450704467
1000.764404142124
1000.604343715032
1001.274847549699
1000.747772191626
1000.200871767644
1000.252353105193
999.8721104294285
999.8178578401039
1000.952640013963
1002.291582562112
1001.245335505179
1001.579169818274
1000.703023150414
1002.549189462443
1002.291582558956
1000
1000
1000
1000.078416900255
1001.676096525071
1002.549189460566
1001.848641116053
1000.838854537947
999.2155673573088
1000
1000.821528870505
1012.810382405375
1000.252588929024
1011.303877048185
1001.6740069675
1000.85610478715
1001.576565739486
999.9548394044751
1006.824069926639
1001.587004353064
1000.286855390399
999.9077654189324
999.2155673578902
1002.509882478374
1002.587019144446
1000.783102397428
1002.268901499679
1002.05827852685
999.3515401606934
999.371114645691
999.8469239735326
1001.733135424662
1001.29381408099
1000.881470629701
1000.929893781719
1001.265228841321
1000.783102399038
1003.266568763572
1000.014122971486
1002.234789992178
1000.317723054492
999.0112828175005
1001.394159001687
1000.579938451824
1000.56332740814
1002.433277933568
1001.558907712943
1000.620370010774
998.7826995105565
998.2407653151213
1000.361059484602
1000.218303345812
1000
993.5698065962392
1001.838906662455
1001.838906654691
1004.113268382729
1004.113268367556
999.0709394401753
999.0709394380499
1000.04240440048
1002.996155339492
1002.996155336723
996.8875235785605
996.8875235836636
997.8878590567288
999.742256982369
1001.541894637188
999.7422569892594
998.1915190170944
998.1915190093869
1000.277729316169
1000.277729312194
997.7186811013275
1000.386303981576
999.0397366248586
997.9448339891717
1001.364963821359
1001.364963830192
1000.515334726229
1000.515334718539
1003.3344658874
999.8791987410867
1000.462199544321
1003.33446589007
1000.721993277444
1000.721993279529
1000.76250467103
1000.762504670725
1000.113337319602
1000.113337321373
1001.430075401596
1006.03464831478
1001.954853676518
1001.954853670308
1006.307231317975
1000.805156520658
1000.805156517757
1000.244203793247
1000.244203786294
1000
1001.733135421772
998.6920463929659
984.7387912255414
984.7387912279225
1002.924319062092
1000.416669471418
1001.34401200298
1009.200919502686
1000.416669468851
1001.498588468565
1001.498588470137
998.1586785526176
999.5010363131918
998.9337622228618
999.4507269578479
1002.234790007041
999.4507269527988
1011.303877068445
1000
1012.810382426689
1007.206003660849
998.4693525825454
998.4693525800182
1000.484204836867
1000.484204848504
998.7753848009644
1002.235458330046
1004.562788192011
1000.337724358722
1001.179316656767
1000.331594134801
999.9043460986578
1000.758851765236
1000.758851766444
1003.339540378468
1003.072803838812
1001.840152933782
1000.465094341372
992.8487829962356
1000.91905816641
1001.428919213094
1001.280051305118
1000.76307270978
1000.756709579714
1000.501762908036
1000.153537563538
1000.620370011519
1001.060681962121
1000.511130990699
1000.263274213405
1000.042300601062
1000.071744278805
1000
1002.830838753787
1002.123790641988
1002.18501850491
1000.933835589085
1000.422218856816
1000.563327405563
1000.698122134196
1000.356875307968
1000.195036318161
1000.571483607844
1000.176349701206
1000.925567350213
1000.112699603902
1000
1000.024808625773
1001.534319132395
1003.079987073648
1003.406649704437
1001.891331984587
1000.628748772538
998.6289767379441
1000.800129154187
1011.495371683078
999.3548071873871
1000.698122135371
1000.356875307234
1000.098718233577
1000.096095971351
1000.08729132907
1000.329675272124
1000.177861190138
1001.060681960354
1000.511130986316
1000.263274211105
1000.042300599181
1000.071744276981
1000.391179884346
1000.266782842976
1000.919058163307
1001.428919212923
1001.280051302441
1000.763072709631
1000.756709580473
1001.200930682421
1000.65214289601
1000.286450709386
1000.76440414368
1001.274847547216
1001.221237798895
1000.997118757886
1001.495373463476
1000.940921797427
1000
1000
1000.821528874935
1001.725887157293
1001.898376130443
1001.639162237886
1000.990789935826