<VTKFile type="PolyData" version="1.0" byte_order="LittleEndian" header_type="UInt64">
  <PolyData>
    <Piece NumberOfPoints="2578" NumberOfVerts="2578">
      <Points>
        <DataArray type="Float64" Name="Points" NumberOfComponents="3" format="ascii">
0.1125397534286885 0.1334647382869209 0.06712369307173464
0.05746024656913381 0.1334647382896187 0.06712369307115944
0.04892231037360969 0.1094743507529422 0.06376207511764444
0.0605256492469849 0.1210776896289634 0.06376207511885296
0.1138543969706641 0.1391605118471451 0.1025794537805947
0.1025281422322953 0.1408152998469846 0.005479601369482116
0.05131303283849562 0.07558301424385637 0.0003282577303024937
0.03765289829726137 0.1043207414764813 0.0641524916950305
0.1043207414780366 0.1323471016998234 0.06415249169600457
0.04296307493850469 0.1270369250641528 0.0646962477314984
0.03496551718615462 0.1196505054151523 0.06564903473369051
0.05034949458917819 0.1350344828160684 0.06564903473343224
0.06244210727262083 0.1505089347870976 0.07032870249850331
0.01949106521241118 0.107557892728873 0.07032870249813589
0.06685555370332104 0.1222711229485279 0.060286848273076
0.04772887705167476 0.1031444462990026 0.06028684827403407
0.1056335601747968 0.1456406901544075 0.01580560192211324
0.1031444463007062 0.1222711229483251 0.06028684827429035
0.0749924035693732 0.1444299815371249 0.01796832369597319
0.09500759642773395 0.1444299815472904 0.01796832370192355
0.1075578927280977 0.1505089347845069 0.07032870249536682
0.04511071971041589 0.1506890095528015 0.07191047498940852
0.08709128314342152 0.142826283065408 0.01361125906495377
0.08290871682442098 0.1428262830781007 0.0136112590868159
0.01931099044598683 0.1248892802840297 0.07191047498909109
0.03253261441031945 0.1295415487722113 0.06784653326964844
0.04045845122904741 0.1374673855932579 0.06784653327103089
0.0535269143183936 0.1164730856781125 0.0601480809695811
0.04639260175117821 0.08139639791194096 0.05867883752771898
0.04639260175032798 0.08860360208324847 0.05867883752251336
0.0886036020830228 0.1236073982476859 0.05867883752934887
0.07434584347638833 0.1231755688754452 0.05837693202862529
0.07335218456196589 0.1327494722627843 0.06192915273962352
0.03725052773509209 0.09664781543671012 0.06192915273815016
0.04682443112399619 0.09565415652344798 0.05837693202006139
0.09565415652292207 0.1231755688754275 0.05837693202537939
0.1157729085685293 0.1499440815835011 0.020002093937218
0.1066406287137283 0.1455612761817346 0.01483241946320417
0.09664781543415794 0.1327494722680667 0.06192915273680859
0.1016499530557298 0.1437958120961067 0.01295118461427283
0.09122228016867236 0.1396474490959644 0.003654313275121908
0.08235270726313704 0.08764729273971238 0.06088405354281331
0.08235270725751057 0.08235270725937158 0.0608840535428413
0.08237414123381658 0.0760119932591409 0.05784155462156382
0.03553791587932445 0.1505019084372652 0.07280078446681523
0.01949809156064023 0.1344620841221025 0.07280078446445033
0.03650164767983717 0.08882138766942711 0.06205000258111219
0.04272545315360023 0.08139563709629129 0.0197565397963632
0.06122649204020664 0.1153653224322592 0.05837555176226198
0.05463467756848169 0.1087735079577065 0.05837555176335558
0.08882138766759359 0.1334983523252724 0.06205000258134703
0.0365016476773357 0.0811786123317914 0.06205000257999065
0.07137994195731007 0.1499888540338963 0.06823448414175312
0.02001114595828129 0.09862005804490413 0.0682344841392941
0.09862005804408103 0.1499888540419131 0.06823448413443944
0.1161004729783226 0.1522279309874221 0.03933614622458532
0.04272545314816724 0.08860436291510963 0.01975653979626576
0.06804845111057153 0.1019515488896366 0.05542107256568587
0.02689364281348148 0.0807301704347039 0.03332121439947823
0.02689364284705846 0.08926982956035556 0.03332121439096104
0.04057839266107476 0.121068881836875 0.02538852297291905
0.07409108164159382 0.0820965791582748 0.007591927350061035
0.07409108164235986 0.0879034208412264 0.00759192735850093
0.0820965791575311 0.0959089183543473 0.007591927359104945
0.1126786465058942 0.1424286128694345 0.01548855586439583
0.05975738960941344 0.1102426103953077 0.01569917866488731
0.05741744736261115 0.1282986443319544 0.04351842582907928
0.03060916686293934 0.1318047254157286 0.05625707603778868
0.03819527458676653 0.1393908331304501 0.05625707603582902
0.08055882573581544 0.08055882573550047 0.008132784713000094
0.08055882573664595 0.08944117426121188 0.008132784717198879
0.029199864626272 0.1247319274221796 0.03549784467201048
0.06499423593651746 0.1285443208422142 0.04066394051699232
0.08951842105263157 0.1618131578947369 0.007911538461538463
0.09855526315789473 0.1618131578947369 0.007911538461538463
0.1075921052631579 0.1618131578947369 0.007911538461538463
0.116628947368421 0.1618131578947369 0.007911538461538463
0.0823741412369336 0.09398800674190215 0.05784155462480043
0.07601199325913252 0.08237414123234825 0.05784155461942367
0.07601199325935584 0.0876258587652026 0.05784155462115901
0.04998240410949967 0.1100306163720255 0.01784218590811568
0.05666450437103886 0.1360810425964424 0.0631269727627309
0.0599693836273902 0.1200175958951328 0.01784218591551951
0.03391895740696455 0.1133354956284948 0.06312697275578687
0.1133354956284648 0.1360810425950508 0.06312697275817679
0.1068801767567557 0.1531577342495344 0.03435027818888552
0.0819138204685321 0.1037298927880211 0.05466260140208044
0.06627010721496661 0.08808617953232202 0.05466260139635174
0.01808959549530488 0.1254741733569227 0.04454401498608577
0.03364904724980633 0.1217171588160676 0.06023164508503313
0.04250144398607705 0.1274985560154367 0.0466470057508603
0.1055793807294956 0.1380433252711661 0.00561077049664693
0.01796435679260426 0.09812466262494637 0.04099704011536368
0.06627010721162117 0.0819138204662071 0.0546626013985648
0.07444790752691953 0.1396984890569426 0.01005929413990153
0.09555209242239197 0.1396984890773934 0.01005929417759815
0.08713383545599079 0.1388434072295615 0.004085635034432986
0.08286616452980163 0.1388434072437291 0.004085635068381499
0.09887585421390938 0.1527777432971753 0.03051729286686312
0.07112414577620313 0.1527777432952839 0.03051729286832959
0.02995317196645463 0.1400468280320664 0.06844241455813177
0.08050095080738315 0.1497004472056643 0.06689823653031017
0.02029955279083614 0.08949904918885618 0.06689823652850212
0.06146661482039888 0.1024841021850285 0.009659587207151111
0.02029955279170036 0.08050095080779958 0.06689823652994502
0.06751589781220621 0.108533385179506 0.009659587205256363
0.09033173013072024 0.1517883883148644 0.0267313964552594
0.04841374788784443 0.1215862521100765 0.02061509973199141
0.07966826985262782 0.1517883883170961 0.02673139646054349
0.05355809762600985 0.1509150841908931 0.06129783234241764
0.04516480744434105 0.1507210577085582 0.06575020073397618
0.08094132017605155 0.1287304285083685 0.03677446406826416
0.05536189626555336 0.1393305568239806 0.0510860179114125
0.06623192713218558 0.1203947437842557 0.01496032911622592
0.08949904918772589 0.1497004472122076 0.06689823652753323
0.0522151199581739 0.1252615840063847 0.05760001190062367
0.04960525621956673 0.1037680728622784 0.01496032910620184
0.04473841599490583 0.1177848800369093 0.05760001190121709
0.07565014364060844 0.1023188113544199 0.05183959218477015
0.07242056594394868 0.1288859445948541 0.03760705655129059
0.06768118865064264 0.09434985636181506 0.05183959218033581
0.08951842105263157 0.1618131578947369 0.01667307692307693
0.06487922562202476 0.137202907585057 0.06028384810336485
0.03279709240711533 0.1051207743727609 0.0602838481100912
0.1051207743718546 0.1372029075933521 0.06028384811353074
0.06810619306669487 0.1165749259261604 0.05379805732194966
0.05342507407535533 0.1018938069302206 0.05379805731816403
0.06489790828948903 0.1051020917053451 0.005821694248553941
0.09855526315789473 0.1618131578947369 0.01667307692307693
0.114526580973422 0.1407260672829725 0.09908170648295553
0.07552369127615627 0.09447630872628918 0.04814315981344351
0.07463026194434109 0.1173515805796211 0.05278770638273872
0.05264841942524208 0.09536973805380607 0.0527877063733465
0.09536973805416293 0.1173515805779117 0.05278770637721301
0.05334858927141861 0.1515194456626422 0.06813864758371556
0.1075921052631579 0.1618131578947369 0.01667307692307693
0.0184805543374605 0.1166514107278888 0.06813864757984794
0.1166514107293461 0.151519445666474 0.06813864758854093
0.05270109928785813 0.08165875253704311 0.05213756284484998
0.08165875253849687 0.1172989007100428 0.05213756284321953
0.116628947368421 0.1618131578947369 0.01667307692307693
0.08834124746253502 0.1172989007105556 0.05213756284226455
0.05270109929599848 0.08834124746402369 0.05213756283587473
0.07309687308201361 0.1369555457498745 0.05888388660500399
0.03304445424534992 0.09690312691655793 0.05888388660534657
0.09690312691497645 0.1369555457599425 0.05888388660435617
0.07187533738370903 0.1520356432080383 0.0409970401136814
0.06095253680006611 0.08204708765461055 0.005862532147652443
0.03213539821775627 0.08924329227835558 0.0583830176776368
0.03213539821799297 0.08075670772109719 0.05838301767527895
0.08924329228029833 0.1378646017875526 0.05838301767989804
0.04828284118823056 0.1363509527493005 0.06023164508378824
0.06095253679754158 0.08795291234984562 0.005862532142314887
0.08204708764774736 0.1090474632032195 0.005862532142937243
0.01885908474847574 0.08055580907348382 0.03875532610949978
0.05976315939511971 0.116720293057699 0.05202107184379644
0.05327970693970208 0.1102368406040943 0.05202107184861952
0.03114724579745877 0.1311985250184477 0.06257163584058759
0.03880147498422872 0.1388527542021237 0.06257163584103136
0.06653193011985452 0.1191173260253111 0.05007884034539971
0.04997757674831665 0.128030111501996 0.05044108017316871
0.01885908475148239 0.08944419093090887 0.03875532610664157
0.05088267396853197 0.1034680698790389 0.05007884035102007
0.06047157369948345 0.09572667941818647 0.007375407665582472
0.1034680698774505 0.1191173260289547 0.05007884035565068
[...]
      <PointData>
        <DataArray type="UInt64" Name="type" format="ascii">
1
1
1
1
1
1
1
1
1
1
1
1
1
1
1
1
1
1
1
1
1
1
1
1
1
1
1
1
1
1
1
1
1
1
1
1
1
1
1
1
1
1
1
1
1
1
1
1
1
1
1
1
1
1
1
1
1
1
1
1
1
1
1
1
1
1
1
1
1
1
1
1
1
0
0
0
0
1
1
1
1
1
1
1
1
1
1
1
1
1
1
1
1
1
1
1
1
1
1
1
1
1
1
1
1
1
1
1
1
1
1
1
1
1
1
1
1
1
1
1
1
0
1
1
1
1
1
1
0
1
1
1
1
1
1
0
1
1
1
1
0
1
1
1
1
1
1
1
1
1
1
1
1
1
1
1
1
1
1
1
1
1
1
1
1
1
1
1
1
1
1
1
1
1
1
1
1
1
1
1
1
0
0
0
0
1
1
1
1
1
1
1
1
1
1
1
1
1
1
0
0
0
0
1
1
1
1
0
0
0
0
1
1
1
1
0
0
0
0
1
1
1
1
0
0
0
0
1
1
1
1
0
0
0
0
1
1
1
1
0
0
0
0
1
1
1
1
1
1
1
1
1
1
1
1
1
1
1
1
1
1
1
1
1
1
1
1
1
1
1
0
0
1
1
1
1
1
1
1
1
1
1
1
1
1
1
1
1
1
1
1
1
1
1
1
1
1
1
1
1
1
1
1
1
1
1
1
1
1
1
1
1
1
1
1
1
1
1
1
1
1
1
1
1
1
1
1
1
1
1
1
1
1
1
1
1
1
1
1
1
1
1
1
1
1
1
1
1
1
1
1
1
1
1
1
1
1
1
1
1
1
1
1
1
1
1
1
1
1
1
1
1
1
1
1
1
1
1
1
1
1
1
1
0
0
0
0
1
1
1
1
1
1
1
1
0
0
1
1
1
1
0
0
1
1
1
1
0
0
1
1
1
1
1
0
1
1
1
1
1
1
1
1
1
1
1
1
1
1
1
1
1
0
0
1
1
1
1
0
0
1
0
0
0
1
1
1
0
0
1
0
0
1
1
1
1
1
1
1
1
1
1
0
1
0
1
1
1
1
1
1
1
1
1
1
1
1
1
1
1
1
1
1
1
1
1
1
1
1
1
1
1
1
1
1
1
1
1
1
1
1
1
1
1
1
1
1
1
1
1
1
1
1
1
1
1
0
0
1
1
1
0
1
0
1
1
0
0
1
1
1
1
1
1
0
0
0
0
0
0
0
1
0
1
1
1
1
1
1
1
1
1
1
0
0
0
0
0
0
0
1
1
1
1
1
1
1
1
1
1
1
1
1
1
1
1
1
1
1
1
1
1
1
1
1
1
1
1
1
1
1
1
1
1
1
1
1
1
1
1
1
1
1
1
1
1
1
1
1
1
1
1
1
1
1
1
1
1
1
1
1
1
1
1
1
1
0
0
0
0
0
0
0
0
0
0
0
0
1
0
0
0
0
0
0
0
0
0
0
0
0
0
0
0
0
0
0
0
0
0
0
0
0
0
1
0
0
0
0
0
0
0
1
1
1
1
1
0
0
0
0
0
0
0
0
0
0
0
0
0
0
0
0
0
0
0
0
0
0
0
0
0
0
0
0
0
0
0
0
0
0
0
0
0
0
0
0
0
0
0
0
0
0
0
0
0
1
0
0
0
0
0
0
0
1
1
1
1
0
0
0
0
1
1
1
0
0
0
0
1
1
1
1
1
1
1
1
1
1
1
1
1
1
1
1
1
1
1
1
0
0
0
0
0
0
0
1
1
1
1
1
1
1
1
1
1
1
1
1
1
1
1
1
1
1
1
1
1
1
1
1
1
1
1
1
1
1
1
1
1
1
1
1
1
1
1
1
1
1
1
1
1
1
1
1
1
1
1
1
1
1
1
1
1
1
1
1
1
1
1
1
1
1
1
1
1
1
1
1
1
1
1
1
1
1
1
1
1
1
1
1
1
1
1
1
1
0
0
0
0
0
0
1
1
1
1
1
1
0
0
1
0
0
0
0
1
0
1
1
1
0
0
1
1
1
1
0
1
0
1
1
1
1
1
0
1
1
1
1
1
0
1
1
1
0
1
1
1
1
1
0
1
0
0
1
1
0
1
1
1
0
0
0
0
1
1
0
1
1
0
0
1
0
0
0
1
0
0
1
1
0
1
1
1
0
0
0
0
1
0
0
0
0
0
1
1
1
1
0
1
0
1
0
0
1
1
1
1
1
1
1
1
1
1
1
1
1
0
0
1
1
1
1
1
0
1
0
1
1
1
1
1
0
0
1
1
1
1
1
1
1
1
1
1
1
1
1
1
1
1
1
1
1
1
0
0
1
1
1
0
0
0
0
0
0
0
0
0
0
0
0
0
0
0
0
0
0
0
0
0
0
0
1
1
1
1
1
1
1
1
1
1
1
1
1
1
1
1
1
1
1
1
1
1
1
1
1
1
1
1
1
1
1
1
0
1
1
0
1
1
1
1
1
1
1
1
1
1
1
1
1
1
1
1
1
1
1
1
1
1
1
1
1
1
1
1
1
0
0
1
1
1
1
1
1
1
1
1
1
1
0
0
1
1
1
1
1
0
1
1
1
1
1
1
1
1
1
1
1
1
1
1
0
1
1
1
1
0
1
1
1
1
1
1
1
1
1
1
1
1
1
1
1
1
1
1
1
1
1
1
1
1
1
1
1
1
1
1
1
1
1
1
1
1
1
1
1
1
1
1
1
1
1
1
1
1
1
1
1
1
1
1
1
0
1
1
1
1
1
1
0
0
0
0
1
0
0
0
0
0
0
0
1
1
1
1
1
1
1
1
1
1
1
1
1
1
1
1
1
1
1
1
1
1
1
1
1
1
1
1
1
1
1
1
1
1
1
1
1
1
1
1
1
1
1
1
1
1
1
1
1
1
1
1
1
1
1
1
1
1
1
1
1
1
1
1
1
1
1
1
1
1
1
1
1
1
1
1
1
1
1
1
1
1
1
1
1
1
1
1
1
1
1
1
1
1
1
1
1
1
1
1
1
1
1
1
1
1
1
1
1
1
1
1
1
1
1
1
1
1
1
1
1
1
1
1
1
1
1
1
1
1
1
1
1
1
1
1
1
1
1
1
1
1
1
1
0
0
0
1
1
1
1
1
0
0
1
1
0
0
0
0
1
1
1
0
0
0
0
0
0
0
0
0
0
0
0
0
0
0
0
0
0
1
1
1
1
1
1
1
1
1
1
1
1
1
1
1
1
1
1
1
1
1
1
1
1
1
1
1
1
1
1
1
1
1
1
1
1
1
1
1
1
1
1
1
1
1
1
1
1
1
1
1
1
1
1
1
1
1
1
1
1
1
1
1
1
1
1
1
1
1
1
1
1
1
1
1
1
1
1
1
1
1
1
1
1
1
1
1
1
1
1
1
1
1
1
1
1
1
1
1
1
1
1
1
1
1
1
1
1
1
1
1
1
1
1
1
1
1
1
1
1
1
1
1
1
1
1
1
1
1
1
1
1
1
1
1
1
1
1
1
1
1
1
1
1
1
1
1
1
1
1
1
1
1
1
1
1
1
1
1
1
1
1
1
1
1
1
1
1
1
1
1
1
1
1
1
1
1
1
1
1
1
1
1
1
1
1
1
1
1
1
1
1
1
1
1
1
1
1
1
1
1
1
1
1
1
1
1
1
1
1
1
1
1
1
1
1
1
1
1
1
1
1
1
1
1
1
1
1
1
1
1
1
1
1
1
1
1
1
1
1
1
1
1
1
1
1
1
1
1
1
1
1
1
1
1
1
1
1
1
1
1
1
1
1
1
1
1
1
1
1
1
1
1
1
1
1
1
1
1
1
1
1
1
1
1
1
1
1
1
1
1
1
1
1
1
1
1
1
1
1
1
1
1
1
1
1
1
1
1
1
1
1
1
1
1
1
1
1
1
1
1
1
1
1
1
1
1
1
1
1
1
1
1
1
1
1
1
1
1
1
1
1
1
1
1
1
1
1
1
1
1
1
1
1
1
1
1
1
1
1
1
1
1
1
1
1
1
1
1
1
1
1
1
1
1
1
1
1
1
1
1
1
1
1
1
1
1
0
0
0
0
0
0
1
1
1
1
1
1
1
1
1
1
1
1
1
1
1
1
1
0
0
0
0
0
0
0
0
0
1
1
1
1
1
1
1
1
1
1
1
1
1
1
1
1
1
1
1
1
1
1
1
1
1
1
1
1
1
1
1
1
1
1
1
1
1
1
1
1
1
1
1
1
1
1
1
1
1
1
1
1
1
1
1
1
1
1
1
1
1
1
1
1
1
1
1
1
1
1
1
1
1
1
1
1
1
1
1
1
1
1
1
1
1
1
1
1
1
1
1
1
1
1
1
1
1
1
1
1
1
1
1
1
1
1
1
1
1
1
1
1
1
1
1
1
1
1
1
1
1
1
1
1
1
1
1
1
1
1
1
1
1
1
1
1
1
1
1
1
1
1
1
1
1
1
1
1
1
1
1
1
1
1
1
1
1
1
1
1
1
1
1
1
1
1
1
1
1
1
1
1
1
1
1
1
1
1
1
1
1
1
1
1
1
1
1
1
1
1
1
1
1
1
1
1
1
1
1
1
1
1
1
1
1
1
1
1
1
1
1
1
1
1
1
1
1
1
1
1
1
1
1
1
1
1
1
1
1
1
1
1
1
1
1
1
1
1
1
1
1
1
1
1
1
1
1
1
1
1
1
1
1
1
1
1
1
1
1
0
0
1
1
1
1
1
0
1
1
0
0
0
1
1
1
1
1
1
1
1
1
1
1
1
1
1
1
1
1
1
1
1
1
1
1
1
1
1
1
1
1
1
1
1
1
1
1
1
1
1
1
1
1
0
0
0
0
0
0
0
0
0
0
0
0
0
0
0
0
0
0
0
0
0
1
1
1
1
1
1
1
1
1
1
1
1
1
1
1
1
1
1
1
1
1
1
1
1
1
1
1
1
1
1
1
1
1
1
1
1
1
1
1
1
1
1
1
1
1
1
1
1
1
1
1
1
1
1
1
1
1
1
1
1
1
1
1
1
1
1
1
1
0
1
1
0
1
1
0
1
1
0
0
0
0
0
0
0
0
0
1
1
1
1
0
1
1
1
1
0
1
1
1
1
1
1
1
1
1
1
0
1
1
1
1
1
1
1
1
1
1
1
1
1
1
1
1
1
1
1
1
1
1
1
1
1
1
1
1
1
1
1
1
1
1
1
1
1
1
1
1
1
1
1
1
1
1
1
1
1
1
1
1
1
1
1
1
1
1
1
1
1
1
1
1
1
1
1
1
0
1
0
1
1
1
1
0
0
0
0
0
0
1
0
0
0
0
0
0
0
0
0
0
0
0
0
0
0
0
0
0
0
1
1
1
1
1
1
1
1
1
1
1
1
1
1
1
1
1
1
1
1
0
1
1
0
0
1
1
1
0
1
1
1
1
1
1
0
1
1
1
1
0
1
1
1
1
0
0
0
0
0
0
0
0
0
1
1
0
1
0
0
0
0
1
0
0
0
0
0
0
0
0
0
0
1
1
0
1
0
0
0
0
0
0
0
0
0
0
0
0
0
0
0
0
0
0
0
0
0
0
0
0
0
0
0
0
0
0
0
0
0
0
0
0
0
0
0
0
0
0
1
0
0
0
0
0
0
1
1
1
0
0
0
0
0
0
0
0
0
0
0
0
0
0
0
0
0
0
0
0
0
0
0
0
1
0
0
0
0
1
1
1
1
0
1
0
0
0
0
1
0
1
0
0
0
0
0
0
0
0
0
0
1
1
0
0
0
0
0
0
1
0
1
0
0
1
0
0
0
0
0
0
0
0
0
        </DataArray>
        <DataArray type="Float64" Name="density" format="ascii">
999.8267507783905
999.8267508009556
997.737584259094
997.7375842279888
1000.440851459633
1001.214426901487
999.246156784768
1000.713706825287
1000.71370679096
1003.058270484246
999.5922008533098
999.5922008846054
998.5699168513886
998.5699168432234
996.7450317818127
996.7450317947071
977.7623524896815
996.7450317843479
1007.511667802792
1007.511667942953
998.5699168394608
1001.090054609708
993.9825452908028
993.9825451705733
1001.090054618926
999.6215169764183
999.6215169731549
999.8974313386226
997.2402299452624
997.2402299478264
997.2402299047561
997.2027769153844
1000.270996942606
1000.270996926102
997.2027769109777
997.2027768677561
999.577536813447
998.8683605582476
1000.27099688802
1000.101421795171
999.9081192862411
1001.301318651943
1001.301318617752
1001.455197448318
1001.775349487543
1001.775349499729
997.5912341685831
997.0189796627549
998.500035757854
998.5000357622222
997.5912341617453
997.5912341479027
999.5117614283034
999.511761390071
999.5117613554187
999.9291656399498
997.0189797571518
1003.689982287338
1000.831913265936
1000.831913199793
1000.372214214283
999.6300783977586
999.6300784274899
999.630078425405
1012.266552634818
993.4809074177529
993.2939595874468
1002.200565769197
1002.200565762295
999.823440942459
999.8234409593489
1003.148381597633
995.5697995111823
1013.653587368946
1018.300601625173
1023.112550939316
1020.969749073563
1001.455197451844
1001.455197436859
1001.455197439077
993.0873932049653
997.5309854554054
993.0873931847673
997.5309854365283
997.5309853984508
995.5660494583576
1001.673526188629
1001.673526154227
1000.159754294937
1000.152136512712
997.2164526885003
995.7360810444483
992.4325113955333
1001.673526137273
1004.655562252519
1004.655562072786
1002.343903773424
1002.343903820472
994.1758434804839
994.175843604057
994.6527102272323
1000.290388537667
1000.290388510046
1002.539317860078
1000.290388515173
1002.539317854158
994.1481956367544
1005.871423888161
994.1481956663124
998.579998043652
1000.457900974207
996.9930800307619
1002.827996158928
1001.417444362241
1000.29038850102
1002.31788439974
1001.417444361164
1002.31788439911
1003.17380274903
994.9000313798996
1003.17380272361
1000
993.7298251053716
993.7298250463584
993.7298249888821
1000.289364507139
1000.289364526828
997.8820641564421
1000
1000.818449776207
1000.554163019747
1001.17297875901
1001.172978779055
1001.172978765762
999.7651983401504
1004.832578289624
999.7651983450746
999.7651983772971
1001.780957834552
1001.780957850245
1004.797212659501
1001.780957856026
1001.780957823534
997.1101762386731
997.1101762459461
997.1101762283647
992.4325114482444
1000.65896259738
997.5884821836504
997.5884821642284
997.5884821887017
1000.152136564068
1000.658962563047
1000.658962587007
996.5433236477563
1002.191144062407
1002.191144080912
1000.229123769638
1000.229123737664
1004.697373782669
995.8986766492469
996.5433235944473
1004.697373814792
1004.495577448472
1004.69737382109
1001.93670535949
1001.936705400438
1000.733173813779
1000.733173793926
1000.7331738051
1000.733173800172
1002.443307934577
1002.443307929981
998.4678848912864
1001.858734082916
1000.894254026632
1000.894253931077
996.7425811928755
998.1340042739523
1000.89425392928
1001.236805451136
1002.25278379566
1001.677317118408
1005.48276916466
1002.78964930736
1001.236805450477
1000.10416798342
1000.10416801952
1000.10416797339
1001.936705363576
1003.164865417865
1004.495577476636
1003.164865421781
1003.164865435488
1000.457901005663
1000.615410894944
999.7983049899123
1003.173802663432
1001.221426277969
1000.428804889397
1000
1000.664556982643
1000.82792104284
1001.283379288217
1001.283379255513
1001.283379253696
1002.257962253522
1001.411402325424
1000
1000.834869799718
1001.630059006612
1002.257962245259
1004.859344399837
1002.257962259541
1003.649622004046
1002.740298131777
1000.359226894319
1000.049002027434
1000.151766180826
1003.649621974985
1003.649621962941
1003.649621962357
1002.598569345764
1000
1000
1000.437728853798
1000.708246152303
1002.598569286272
999.2565985321986
999.2565984837545
1002.598569273056
1000
1000
1000
1000
999.3598311538165
999.3598310908347
999.3598311291174
1001.455936944951
1000
1000
1000
1000
1001.455936937513
1001.455936950354
1002.348893719708
1002.348893745697
997.4345283349072
997.4345283845259
997.434528366001
1000.728631173047
1003.098692969256
1003.098692974526
1003.098692973746
1000.152754526408
1000.152754575871
1003.494399588333
1003.494399554714
1003.494399572531
988.9919018907792
996.543323650296
1003.494399569416
1001.455936944352
1000.823075896778
1000.990988437372
1000.990988473566
1000.27460052065
996.302669366311
996.7223674352156
1001.117922770436
1000
1000
996.7546679110625
1000.274600473047
1001.11792282193
1001.117922777245
1000.728631141154
1003.595687252735
994.20013661679
1000.18638991374
1001.041236895585
1001.041236904924
1001.117922829815
993.2939595900597
1004.756104650057
1001.757367472616
1001.75736740924
996.9930800217514
996.993080056122
1000.904505574612
1000.904505621797
994.9000314153536
1002.894743872326
1002.894743882589
1001.041236864069
1003.021059236158
1001.827833049492
1006.449077668747
1000.980185909023
1004.523642356394
1001.555370132059
1002.894743850455
1004.607643982744
989.6601673038582
1005.557601088878
1011.243886939122
1001.769243244203
993.816461841349
996.981239168545
997.9003182881124
1000.645363695415
1000.367856656255
1011.243886945029
997.6901369603892
1009.277247278246
1009.277247216176
1001.580595385708
1001.580595475649
999.0652524276769
993.3247895454675
1011.773930013023
1002.727339534728
999.0652524274489
1002.727339456486
1003.655066365125
1001.5353497382
1009.130008331635
1000.80630734566
999.0652524081682
1010.823061260027
1010.823061292696
1009.130008403616
1000.083644011355
1010.823061279847
1000.615410849513
996.7223674244667
1002.82799610443
1000.083643976656
999.7715592370874
1000.360264373877
992.4325114251665
1014.019104027234
1013.164965715357
993.32478943891
999.9291656745163
1003.021059240126
1002.352706395829
1002.352706424492
1004.217373000441
994.0173122719895
994.0173122766768
1001.827833055358
998.65103121521
998.6510313346179
993.1126130452687
993.112613037309
993.1126130431506
1003.161965743524
1000.965220889222
1003.161965676296
994.2001366309756
995.0346206068341
997.0523498292913
1004.523642370809
1004.523642354372
989.0544515017699
1000.274600441581
999.9931749809303
999.9931750631615
999.9931750109308
995.0346206297755
1006.616682212451
1003.964411705371
996.8260309003376
1003.964411728459
1000.026515826862
1000.026515823013
985.6833963981796
985.6833964563097
1000.253200286815
1004.027517432101
1004.027517436331
1004.027517428579
1000
1000
1000
1000
1001.296174490338
1001.29617448582
1000.728631129784
1003.024276446794
997.4345283821029
989.0544514258569
1004.470354148354
1010.45929328162
1000
1000
1001.769243246669
996.9930800520324
999.6301143655631
1001.942526290755
1002.740298061739
1000.359226844231
999.2461568555626
995.8986766032926
995.7611489823714
999.2461568115089
1001.411402287786
1000
999.0859894634683
997.7799706815172
999.7888593824844
1000.959201419383
1001.189153804948
1000.428804916795
998.2343905170026
997.5884821695925
997.0523498641703
1005.557601039276
1001.58059544073
998.8324780671271
1001.402129740252
1001.580595418745
998.5799980530527
998.9235087068556
998.9235086956812
1002.984277938117
1000.980185914596
1000.253200318432
999.8267507996501
1003.116909663211
1002.185664296717
1000
1002.252783875186
976.4242509834705
1000.713706814079
997.2402299531667
1001.221426329661
1000
1000
1004.047212637569
1000
1000
1000
996.5433236668291
1001.91768810356
1000.831913228766
1013.653587378809
1000
994.900031418641
1000
1000
1000.831913253528
998.7890952180228
996.7546679627965
996.7546678739993
1001.53534985619
1011.773930008718
999.2461568447593
1009.130008364626
1009.130008350246
1002.185664290281
1000
1013.466753548155
1000
1000.186389969335
1013.46675379058
998.806885169163
998.806884974499
1001.555370041792
1011.773929958432
1000.101421576597
999.9081192095156
1000.253200252236
1001.189153820575
1001.917688053633
998.7890950656022
1000.289119620243
997.7956853470254
1003.116909624657
993.816461909095
996.9812391574756
996.7546679415572
999.7983048730057
1006.449077671248
1005.557600977124
1002.185664335655
1001.942526238519
985.6833964187949
1001.18915385541
1000.274600494394
1011.243886932106
1003.59568726874
1009.277247196042
998.789095165115
1001.535349810925
1004.470354176154
1010.823061277719
999.7983050381015
1001.917688085061
1004.047212604131
1004.047212585433
999.6301144112534
994.2001366394935
1003.595687265311
999.0859894730781
995.5697995565245
999.1132277307385
999.113227706953
994.9155379233728
994.9155379464336
1001.479538404864
1001.479538410823
1002.17632881812
993.8164618818882
999.9081191854622
1000
1002.740298099344
1001.827833054792
1000.289119382018
1007.51166792454
1001.411402311395
1003.161965649979
1000.428804921482
1004.65556200557
1006.449077704606
1002.252783856895
1000
995.0346205628455
1002.343903784299
993.9825448363251
993.9825454591925
999.9081193093062
1000.164419257686
1018.300601628449
1000
1001.677317136173
1000
1000
1000.359226907115
1000
1004.523642351396
1013.653587391733
989.0544514580529
1000.16441926089
999.9931750045552
996.9812391067243
1000.101421792678
995.569799537936
993.8164618841136
1000.186389753483
1003.964411654846
998.5799980359086
1000
1002.740298113967
1001.4114023114
1000.428804909233
1002.252783786469
1000
1013.653587376944
1002.343903806938
1001.371740753236
977.7623524629741
1007.810701979449
1006.242802724593
1006.242802644742
1000.539079680024
1000.539079706495
1000.159754305922
994.4703518947474
994.4703520967041
985.6833964307516
1012.266552606386
1012.266552620811
995.7360816830466
995.7360810646793
1009.536241284896
1005.571426498634
1005.571426622924
999.7709609512342
999.7709609548067
998.7854102233088
995.8324391268005
995.8324390215198
994.4773635667592
988.9919019011965
997.012225366908
1000.970288686892
1000.726783528031
1001.214426776095
996.2910430066595
998.485782928086
997.0974965111491
995.1182894983657
998.1003683880531
1004.077323020072
1002.204506295272
998.100368425478
1000.122891557901
999.9734826593436
999.7719419227734
1000.122891603235
995.118289780805
988.9919019787156
996.4587575271159
1005.286217359379
998.4507909706667
1005.286217331965
996.4587578146743
997.0974963720591
998.1340042870753
998.1340041425246
1004.302203423783
994.63325295737
1002.899538096042
999.9235701570541
999.0087640703739
1002.899538001687
994.6332531584185
1004.302202891679
996.291043234018
998.8068849816632
1000.980185910449
999.7888593302735
998.8324780406447
998.8068851995163
1000
1000
1000
1000
1000
1000.1164043258
1000
1000
1000
1000
1000.323152971858
1000.286218771823
1001.214426885721
1000.437728766938
1000.708246130135
1000.60757135662
1000.390509732547
1000.221913496467
1000.201792441054
1000.049002027029
1000.151766188388
1000.453037114087
1000.259115409081
1000
1000
1000.834869790005
1001.630059022304
1002.953178849271
1001.150707985473
1000.545121071573
1000
1000
1000.664557049917
1000.82792112126
1000.200322662066
1000.541314639631
1001.731239504748
1003.793784354089
1016.195691106306
1001.67731723539
1005.48276929767
1002.789649471089
1000
1000.141977738844
1003.406635212604
1004.329209810697
1005.39431378888
1005.394313668687
1014.019104004574
997.0189796924155
1001.058576346722
1000
1004.832578441139
1004.797212683486
1000.499988560655
1000.594351413977
1003.203302231112
1003.250011969077
1023.11255101509
1020.969749150962
1011.693673594173
1023.665715877386
1007.366537213355
1003.974035521499
1000.891213991053
1004.832578294374
1004.797212637985
1000.499988510182
1000.594351733582
1003.203302386565
1003.250012194383
1001.193946024426
1005.482769155031
1002.789649368459
1000
1000.141977813448
1003.406635250295
1004.32920987747
1003.672074245844
1000.664556981706
1000.827921082954
1000.200322620787
1000.541314684755
1001.731239542814
1003.793784393781
1002.269077143781
1000.834869797176
1001.630059044431
1002.953178754764
1001.150707898147
1000.545120998916
1000
1000
1000.049002037985
1000.151766187355
1000.45303705436
1000.259115391583
1000
1000
1000
998.7546329188125
1000.437728875519
1000.708246159395
1000.607571378038
1000.390509748359
1000.221913503205
1000.201792422534
1000.476790164446
1001.555370082165
994.148195601901
1001.402129743913
996.2920100018869
1000
1000.323152987805
1000.286218776974
1000.432234251917
994.1481956318803
997.7799705804517
999.7888594337089
1000
1000
1000.116404330333
1000.922426022799
1000.64536381308
1001.942526321897
997.7956854321661
1003.021059247057
1002.827996136417
1000.083643949981
1013.466753802129
1000.645363755028
995.7611489516221
993.3247893626361
993.2939595519557
998.9235087250803
1000.959201386897
997.9003182311391
997.7956854597423
998.754633022822
997.9003184083713
998.4872701123703
998.4872700968002
994.4773638136816
1003.974035430038
1007.366537190975
1023.665715950053
1011.693673648642
1020.969749139406
1023.112551089702
1018.300601649879
987.1496661063537
998.8683603115118
999.5775368119524
994.3594583092215
996.7873895126695
999.7317026681806
999.7317026069818
996.7873897172333
994.359458469854
999.5775369136858
998.8683605349639
999.0859893952315
1008.643842600858
994.1252572214526
998.8324780985107
1013.16496573186
994.1758434578013
1016.572761652665
1002.984277857586
1001.727376313443
997.5912341917292
984.7490013570621
993.7313458385169
997.7799706302338
997.0189797030981
1000.367856492596
1001.417444327284
993.7313460254353
995.5660494629814
1000.959201416785
995.7611489372475
1000.372214113553
999.4024523833755
1014.019104233676
1013.164965821947
1001.402129764957
999.9291656214488
976.4242510864765
995.5660495608348
977.7623525146411
1001.591220764644
1005.01833667925
998.2343905509049
1000.965221040543
976.4242510040964
999.9333698795974
999.9333699117403
991.2292927528142
1003.148381548726
996.1473679446584
1016.572761705691
996.1473680721738
1003.631337931206
1001.727376377932
994.1252572846272
1004.047212582507
1003.116909683282
999.402452418301
1003.89880913702
1000.461297174499
1002.388521066301
1001.498791719442
998.1185882932807
1001.2360523217
997.7730035781218
1000.406722483313
1000.806307294011
1001.967639476509
998.7268810126166
1000.297065058869
1003.898809157773
1001.251085776164
998.7314525080694
1002.581348726619
1003.665639638148
1002.675825961867
1001.667307004652
1002.093307482973
1002.201524086795
1001.879254491848
1000.329674843046
1000.01285172807
1000.180168487148
997.5039061371431
1001.034461219
1001.269049153574
997.4595743339415
1002.358638899453
1002.950135133818
998.3688474765599
1000
1000
1000
1000
1000
1000
1002.388521053305