<VTKFile type="PolyData" version="1.0" byte_order="LittleEndian" header_type="UInt64">
  <PolyData>
    <Piece NumberOfPoints="2049" NumberOfVerts="2049">
      <Points>
        <DataArray type="Float64" Name="Points" NumberOfComponents="3" format="ascii">
0.1257443017266913 0.1170745033641561 0.103009950950358
0.1170745033616723 0.1257443017218864 0.1030099509516592
0.11382951889892 0.1138295188992823 0.102151470788312
0.09282467176206945 0.1166537393699054 0.06732433950865412
0.08784027775407861 0.1167805509994385 0.05714858905433095
0.09415231924954733 0.1153481347224058 0.02286065330186923
0.1254564762159021 0.1091128311918848 0.101010446653325
0.1091128311904082 0.1254564762110722 0.1010104466542505
0.1356948732883363 0.1262276184995036 0.1014640983600614
0.1262276185026544 0.1356948732896866 0.1014640983571718
0.1121321965659901 0.1177058573599097 0.07974786454614959
0.08782740960239475 0.1160068115711454 0.02235887014141021
0.1309063368058137 0.1398029019990579 0.1017640995445435
0.1398029019970211 0.1309063368008379 0.1017640995382147
0.1481556647984685 0.1384013239738219 0.1029148609165031
0.1384013239702841 0.1481556647915268 0.1029148609043879
0.1137179452117299 0.1255848738087895 0.096686628847566
0.1255848737937865 0.1137179452108071 0.09668662884558334
0.1173450996351998 0.1173450996381117 0.09551344584526214
0.1069129663896589 0.1152674033058885 0.09587182526402738
0.1517973929225558 0.1517973929243592 0.1028357782272016
0.115709281993368 0.1277168528986516 0.09540023732262201
0.1277168528730914 0.1157092819840839 0.09540023731542101
0.1196409256488952 0.13209393336431 0.09465197037514178
0.1015137481502387 0.1141589899156169 0.0186091905958924
0.1231090258418864 0.1347595586805759 0.09279660793388016
0.09455543531230259 0.1144380176365435 0.01725993294922251
0.1372401378431104 0.1270334875034866 0.09306191488645618
0.1390361735382795 0.1476766910652469 0.09861288552864772
0.1270334875036183 0.1372401378415773 0.09306191488711271
0.0874137112619217 0.1156814499174021 0.06713329050505094
0.1203645945592577 0.1203645945639385 0.08765173966714529
0.1301137861228019 0.1394083586128944 0.09241381882703181
0.1394083586185691 0.1301137861267734 0.09241381882966013
0.134759558685104 0.1231090258517561 0.09279660792879416
0.1280864616643304 0.1119051220964942 0.08820077815067652
0.1119051221042538 0.1280864616838526 0.08820077815647749
0.1207618358561411 0.1126818793912995 0.08414721571557461
0.1126818793889714 0.1207618358625009 0.08414721572265289
0.08826107917254598 0.1141111021050589 0.01434676250056509
0.1165779308785699 0.1331336355343493 0.08671738161417138
0.1476766910710677 0.1390361735445052 0.09861288553570756
0.1320939333675099 0.11964092566084 0.09465197037533928
0.1398279429625796 0.1473397983655849 0.09404288586719059
0.1143418565384381 0.1271311600607324 0.0539858002182993
0.1063722645925232 0.1285460947356451 0.08418280581589638
0.115282792860068 0.138607304762494 0.0744973500227019
0.1473397983633906 0.1398279429669494 0.09404288586894438
0.1169653408290837 0.1451015444220558 0.05813152190777401
0.1076162924340799 0.14583796352677 0.05382192098578988
0.1167587142145335 0.1481742273166662 0.05519116820198828
0.116628947368421 0.1618131578947369 0.09552692307692309
0.1075921052631579 0.1618131578947369 0.09552692307692309
0.116628947368421 0.1618131578947369 0.08676538461538462
0.1075921052631579 0.1618131578947369 0.08676538461538462
0.116628947368421 0.1618131578947369 0.1042884615384616
0.1075921052631579 0.1618131578947369 0.1042884615384616
0.1097067303045226 0.1299482937097295 0.04889024034389815
0.1152038290763675 0.1393423736105105 0.06978011407084625
0.1331336355323743 0.1165779308890686 0.08671738160905447
0.1001906059652638 0.1140232959401002 0.02358799328064614
0.1159836311261736 0.1400074433772192 0.06486800368066155
0.1064828908706254 0.1414929431285215 0.06132143154707817
0.1168344197380183 0.1421500157559209 0.06116686628957229
0.1069528272902484 0.1423996565796255 0.05623187360001772
0.1100064581970048 0.1241612124591051 0.01644530560125872
0.111013005987052 0.1249211987687253 0.005947748351748669
0.1136123746117245 0.1327278816660434 0.03058145843948096
0.1068477938162472 0.128929108457159 0.02693699235252033
0.1090904141417637 0.125207749326742 0.02192964977911418
0.1153177117608649 0.1396338374781934 0.02914526808303557
0.11538316180276 0.1518224035184452 0.03288642024754694
0.1097821364298281 0.1337794793989594 0.08264302170360602
0.1152803629035691 0.1487366237661513 0.03870949547950522
0.1070275077623026 0.1497913091374643 0.0403270174959748
0.1160539616693198 0.1507438476102146 0.04504347196749293
0.1153271639036044 0.1410020954379998 0.01583274322902815
0.1065534210997336 0.1504891177654042 0.03438998005985919
0.1110518032232128 0.1412980073093878 0.01443056653140829
0.1157521608577934 0.1507516438269033 0.02661789375116161
0.1127997932445682 0.134774964702827 0.005912549989090368
0.1156443414499673 0.1464432621670557 0.01824438726646807
0.1073649157308286 0.1073649157348578 0.06041361673566688
0.1109979027659567 0.1280792326847188 0.06423130902928066
0.1089179035176014 0.121656878147627 0.0660992447103209
0.116628947368421 0.1618131578947369 0.07800384615384616
0.1177058573597762 0.11213219656486 0.0797478645403492
0.1354470322575738 0.1269579688992358 0.05333769367249884
0.1269579689013883 0.1354470322583175 0.05333769367020202
0.1451015444197736 0.1169653408235622 0.0581315219079908
0.1458379635299514 0.1076162924279463 0.05382192099373973
0.1382468523753914 0.1382468523728157 0.05914656875943685
0.1462178744852953 0.09795060004113477 0.05064157192406498
0.1250901889943735 0.1471000212667909 0.05957646965184338
0.1471000212602387 0.1250901889882645 0.05957646964754082
0.1507464441345885 0.142292362243688 0.07355908095551567
0.1422923622446389 0.150746444132879 0.0735590809565973
0.1479325385127926 0.1355047110251218 0.06448501750895229
0.1355047110226341 0.1479325385133647 0.06448501750898124
0.1481742273184957 0.1167587142091299 0.05519116820646289
0.1521311882527896 0.1521311882554892 0.0817334114682948
0.1618131578947369 0.1075921052631579 0.08676538461538462
0.1618131578947369 0.116628947368421 0.08676538461538462
0.1618131578947369 0.1075921052631579 0.09552692307692309
0.1618131578947369 0.116628947368421 0.09552692307692309
0.1618131578947369 0.1075921052631579 0.1042884615384616
0.1618131578947369 0.116628947368421 0.1042884615384616
0.1510028150377648 0.1422212313250035 0.06705145767453052
0.1519726822755622 0.1519726822745386 0.07387523459817501
0.1075921052631579 0.1618131578947369 0.07800384615384616
0.1422212313268266 0.1510028150369192 0.06705145767844925
0.1256657894736842 0.1618131578947369 0.09552692307692309
0.1527763157894737 0.1618131578947369 0.08676538461538462
0.1437394736842105 0.1618131578947369 0.08676538461538462
0.116628947368421 0.1618131578947369 0.0692423076923077
0.1075921052631579 0.1618131578947369 0.0692423076923077
0.116628947368421 0.1618131578947369 0.06048076923076924
0.1075921052631579 0.1618131578947369 0.06048076923076924
0.116628947368421 0.1618131578947369 0.05171923076923078
0.1347026315789474 0.1618131578947369 0.08676538461538462
0.1256657894736842 0.1618131578947369 0.08676538461538462
0.1075921052631579 0.1618131578947369 0.05171923076923078
0.116628947368421 0.1618131578947369 0.04295769230769231
0.1618131578947369 0.1256657894736842 0.08676538461538462
0.1618131578947369 0.1347026315789474 0.08676538461538462
0.1075921052631579 0.1618131578947369 0.04295769230769231
0.1618131578947369 0.1437394736842105 0.08676538461538462
0.116628947368421 0.1618131578947369 0.03419615384615385
0.1618131578947369 0.1527763157894737 0.08676538461538462
0.1075921052631579 0.1618131578947369 0.03419615384615385
0.1072542389601117 0.1509925226404189 0.04662208734915321
0.1618131578947369 0.1618131578947369 0.08676538461538462
0.116628947368421 0.1618131578947369 0.02543461538461539
0.1075921052631579 0.1618131578947369 0.02543461538461539
0.113579909976464 0.1364549688643401 0.03669908840904296
0.116628947368421 0.1618131578947369 0.01667307692307693
0.1166015725259711 0.1509739944828197 0.05140787443351917
0.1075921052631579 0.1618131578947369 0.01667307692307693
0.1125813381265167 0.1378310946701127 0.07751643120992956
0.1126224833522685 0.1342573021826922 0.04150892261650231
0.116628947368421 0.1618131578947369 0.007911538461538463
0.1075921052631579 0.1618131578947369 0.007911538461538463
0.1156874214636961 0.1518465311331696 0.02377994391274547
0.1152674033033442 0.1069129663885921 0.09587182526317989
0.1144284896033861 0.1389596611149322 0.005559891931660718
0.1074993861166809 0.1487496297217722 0.05097765436786088
0.1119371546569761 0.1363238841748309 0.08033327407657753
0.1108715154302361 0.1316292666112392 0.04527387554993309
0.1618131578947369 0.1256657894736842 0.09552692307692309
0.1618131578947369 0.1347026315789474 0.09552692307692309
0.1618131578947369 0.1437394736842105 0.09552692307692309
0.1618131578947369 0.1527763157894737 0.09552692307692309
0.1618131578947369 0.1618131578947369 0.09552692307692309
0.1618131578947369 0.1256657894736842 0.1042884615384616
0.1618131578947369 0.1347026315789474 0.1042884615384616
0.1618131578947369 0.1437394736842105 0.1042884615384616
0.1618131578947369 0.1527763157894737 0.1042884615384616
0.1618131578947369 0.1618131578947369 0.1042884615384616
0.1527763157894737 0.1618131578947369 0.09552692307692309
0.1498491465482623 0.09876036037606339 0.04431630853932839
0.1402206224462042 0.09805252593220906 0.03305810946696859
0.1387467279564096 0.09772367734716647 0.02176518861368765
0.1527763157894737 0.1618131578947369 0.1042884615384616
0.1437394736842105 0.1618131578947369 0.09552692307692309
0.1347026315789474 0.1618131578947369 0.09552692307692309
0.1437394736842105 0.1618131578947369 0.1042884615384616
0.1317203799635416 0.09846634829825873 0.02643889437695636
0.1461536830576335 0.09582144954915575 0.01983925157736012
0.1618131578947369 0.09855526315789473 0.07800384615384616
[...]
      <PointData>
        <DataArray type="UInt64" Name="type" format="ascii">
1
1
1
1
1
1
1
1
1
1
1
1
1
1
1
1
1
1
1
1
1
1
1
1
1
1
1
1
1
1
1
1
1
1
1
1
1
1
1
1
1
1
1
1
1
1
1
1
1
1
1
0
0
0
0
0
0
1
1
1
1
1
1
1
1
1
1
1
1
1
1
1
1
1
1
1
1
1
1
1
1
1
1
1
1
0
1
1
1
1
1
1
1
1
1
1
1
1
1
1
1
0
0
0
0
0
0
1
1
0
1
0
0
0
0
0
0
0
0
0
0
0
0
0
0
0
0
0
0
0
1
0
0
0
1
0
1
0
1
1
0
0
1
1
1
1
1
1
0
0
0
0
0
0
0
0
0
0
0
1
1
1
0
0
0
0
1
1
0
0
0
0
0
0
0
0
0
1
1
1
0
0
1
1
1
1
1
1
1
1
1
1
1
1
1
1
1
1
1
1
1
1
1
1
1
1
1
1
1
1
1
1
1
1
1
1
1
1
1
1
1
1
1
1
1
1
1
1
1
1
1
1
0
0
0
0
1
1
1
0
0
0
0
0
0
0
0
0
0
0
0
0
0
0
0
0
0
0
0
0
0
0
0
0
0
0
0
0
0
0
0
0
0
0
0
1
0
0
0
0
1
1
0
0
0
0
0
0
1
1
1
1
0
0
0
0
0
0
0
0
0
0
0
0
0
0
0
0
0
0
0
0
0
0
0
0
1
1
1
1
1
1
1
1
1
1
1
1
1
1
1
1
1
1
1
1
1
1
1
0
0
0
0
0
0
0
0
0
0
0
0
0
0
0
0
0
0
0
0
0
0
0
0
0
1
1
1
1
1
1
1
1
1
1
1
1
1
1
1
1
1
1
1
1
1
1
1
1
1
1
1
1
1
1
1
1
1
1
1
1
1
1
1
1
1
1
1
1
1
1
1
1
1
1
1
1
1
1
1
1
1
1
1
1
1
1
1
1
1
1
1
1
1
1
1
1
1
1
1
1
1
1
1
1
1
1
1
1
1
1
1
1
1
1
1
1
1
1
1
1
1
1
1
1
1
1
1
1
1
1
1
1
1
1
1
1
1
1
1
1
1
1
1
1
1
1
1
1
1
1
1
1
1
1
1
1
1
1
1
1
1
1
1
1
1
1
1
1
1
1
1
1
1
1
1
1
1
1
1
1
1
1
1
1
1
1
1
1
1
1
1
1
1
1
1
1
1
1
1
1
1
1
1
1
1
1
1
1
1
1
1
1
1
1
1
1
1
1
1
1
1
1
1
1
1
1
1
1
1
1
1
1
1
1
1
1
1
1
1
1
1
1
0
0
1
1
1
1
1
1
1
1
0
1
0
1
1
1
1
1
1
1
1
0
0
1
1
1
0
0
1
1
0
0
1
1
1
0
0
1
1
1
0
0
1
1
1
0
0
1
0
0
1
1
1
1
1
1
1
1
1
1
1
1
1
1
1
1
1
1
0
0
0
0
0
1
0
0
0
0
0
1
0
0
1
1
0
1
1
1
1
1
1
1
1
1
1
1
1
1
1
1
0
0
0
0
0
0
0
0
0
0
0
0
0
1
1
0
0
0
0
1
0
0
0
0
1
1
1
1
1
1
1
1
1
1
1
1
1
1
1
1
1
1
1
1
1
1
1
1
1
0
1
1
1
1
1
0
0
0
0
0
0
1
1
1
0
0
0
0
1
1
0
1
1
0
1
1
0
0
1
0
1
0
0
0
0
1
1
0
1
1
1
0
0
0
0
0
0
0
0
0
0
0
0
0
0
1
0
1
0
1
1
1
1
1
1
0
0
0
1
0
0
1
1
1
0
1
1
1
1
1
0
0
0
0
1
1
1
1
1
1
0
1
1
1
1
1
1
1
1
1
1
1
1
1
1
1
1
1
1
0
0
1
1
1
1
1
1
1
1
1
1
1
1
0
1
0
1
1
1
1
0
1
1
1
1
1
1
1
1
1
1
1
1
1
1
1
1
1
1
1
1
1
1
1
1
1
1
1
1
1
1
1
1
1
1
1
1
1
1
1
1
1
1
1
1
1
1
1
1
1
1
1
1
1
1
1
1
1
1
0
0
0
0
0
1
1
1
1
1
1
1
1
1
1
1
0
1
1
0
1
1
1
0
1
0
1
1
0
1
1
1
0
0
0
0
0
0
0
0
0
0
0
0
0
0
0
1
0
0
0
0
0
0
0
0
0
0
0
0
1
1
1
0
0
0
0
0
0
0
0
0
0
0
0
0
0
0
0
0
0
0
0
0
1
0
0
0
0
0
0
0
0
0
1
1
0
0
0
0
0
0
0
0
0
0
0
0
0
0
0
0
0
0
0
0
0
0
0
0
0
0
1
1
1
1
1
1
0
1
0
0
0
1
0
0
0
0
1
1
1
1
1
0
1
0
0
0
0
0
0
0
0
0
0
0
0
0
0
0
0
0
0
0
0
0
0
0
1
1
1
0
0
0
0
0
0
0
1
1
1
1
1
1
1
1
1
1
1
1
1
1
1
1
1
1
1
1
1
1
1
1
1
1
1
1
1
1
1
1
1
1
1
1
1
1
1
1
1
1
1
1
1
1
1
1
1
1
1
1
1
1
1
1
1
1
1
1
1
1
1
1
1
1
1
1
1
1
1
1
1
1
1
1
1
1
1
1
1
1
1
1
1
1
1
1
1
1
1
1
1
1
1
1
1
1
1
1
1
1
1
1
1
1
1
1
1
1
1
1
0
0
1
1
1
1
1
1
1
1
1
1
1
1
1
1
1
1
1
1
1
1
1
1
1
1
0
0
1
1
0
0
0
0
0
1
1
1
1
1
1
1
1
1
1
0
1
1
1
1
1
1
1
1
0
1
1
1
1
0
1
1
0
0
1
1
1
1
1
1
1
1
1
0
0
1
1
1
1
1
1
1
1
1
1
1
1
1
1
1
1
0
0
1
0
1
0
1
1
0
0
0
0
1
1
1
1
1
1
0
0
0
0
1
1
1
1
1
1
1
1
1
1
1
1
1
1
1
1
1
1
1
1
0
0
0
0
0
0
0
0
0
0
0
0
0
0
0
0
0
0
0
0
0
0
0
0
0
0
0
1
0
0
0
0
0
0
0
0
0
0
0
0
0
0
0
0
0
0
0
0
0
0
0
0
0
0
0
0
0
0
1
1
1
1
1
1
1
1
1
1
1
1
1
1
1
1
1
1
1
1
0
0
1
1
1
1
1
1
1
1
1
1
1
1
1
1
1
1
1
1
1
1
1
1
1
1
1
1
1
1
1
1
1
1
0
1
1
1
1
1
1
1
1
1
1
1
1
1
1
1
1
1
0
1
0
1
1
1
1
1
1
1
1
1
0
1
1
1
1
0
1
1
1
1
1
1
1
1
1
0
1
1
1
1
0
1
1
1
1
1
1
1
1
1
1
0
1
1
1
1
1
0
1
1
1
1
1
1
1
1
1
1
1
1
1
1
1
1
1
1
1
1
1
1
1
1
1
1
1
1
1
1
1
1
1
1
1
1
1
1
1
1
1
1
1
1
1
1
1
1
1
1
1
1
1
1
1
1
1
1
1
1
1
1
1
1
1
1
1
1
1
1
1
1
1
1
1
1
1
1
1
1
1
1
1
1
1
1
1
1
1
1
1
1
1
1
1
1
1
1
1
1
1
1
1
1
1
1
1
1
1
1
1
1
1
1
1
1
1
1
1
1
1
1
1
1
1
1
1
1
1
1
1
1
1
1
1
1
1
1
1
1
1
1
1
1
1
1
1
1
1
1
1
1
1
1
1
1
1
1
1
1
1
1
1
1
1
1
1
1
1
1
1
1
1
1
1
1
1
1
1
1
1
0
0
0
0
1
1
1
1
1
1
1
1
1
1
1
1
1
1
1
1
1
1
1
1
1
0
0
0
0
0
1
1
1
1
1
1
1
1
1
1
1
1
0
0
0
0
0
0
0
0
0
1
1
1
1
1
1
1
1
0
0
0
0
0
0
0
0
0
1
1
1
1
1
1
1
1
1
1
1
1
1
1
1
1
1
1
1
1
1
1
1
1
1
1
1
1
1
1
0
0
0
0
0
0
0
0
0
0
0
0
0
0
0
0
0
0
0
0
0
0
0
0
0
0
0
0
0
0
0
0
0
0
0
0
0
1
0
0
0
0
0
0
0
0
0
0
0
0
0
0
0
0
0
0
0
0
0
0
0
0
0
0
0
0
0
0
0
0
0
0
0
0
0
0
0
0
0
0
0
0
0
0
0
0
0
0
0
0
0
0
0
0
0
0
0
0
0
0
0
0
0
0
0
0
0
0
0
0
0
0
0
0
0
0
0
0
0
0
0
0
0
0
0
0
0
0
0
0
0
0
0
0
0
0
0
0
0
0
0
0
0
0
0
0
0
0
0
0
0
0
0
0
0
0
0
0
0
0
0
0
0
0
0
0
0
0
0
0
0
0
0
0
0
0
0
0
0
0
0
0
0
0
0
0
0
0
0
0
0
0
0
0
0
0
0
0
0
0
0
0
0
0
0
0
0
0
0
0
0
0
1
1
1
1
1
1
1
1
1
1
0
0
0
0
0
0
0
0
0
0
0
0
1
1
1
1
1
1
1
1
1
1
1
1
        </DataArray>
        <DataArray type="Float64" Name="density" format="ascii">
1000.058959800862
1000.058959804572
999.078442536824
999.9099313510133
1003.82487671751
1002.222509765362
999.432323411633
999.4323234448823
999.4915259471381
999.4915259679185
997.8724612983153
1005.115731017751
1000.167611729562
1000.167611717308
999.1548303377512
999.1548303539289
1002.115203067207
1002.115203063464
1001.190509723549
1001.190438792517
999.702236357265
1001.328852119267
1001.328852135621
999.6565943490283
997.5844280836889
1000.388346437698
996.5523246003368
999.9657924028559
1001.403499067853
999.9657924324488
1000.827317291289
997.9368719248228
998.91189252124
998.9118924655834
1000.388346417351
999.4126291139858
999.4126290850694
997.5835946905935
997.5835946680335
997.5626486784874
999.177555795176
1001.403499050811
999.6565943125877
1001.038677949663
1002.595845921212
998.7990834278817
999.9764213855203
1001.03867795886
1001.08608448876
999.0849632056593
998.9918860052302
1000
1000
1000
1000
1000
1000
1000.701489950138
999.7365299988536
999.177555848903
1000.707860079614
1002.815637374216
1002.947973055231
1002.120507802792
1005.51956075784
1001.581313844499
996.9895107309932
1003.539775062812
1001.630340978698
1000.491584722643
1004.41664246433
1002.532024921863
999.8201854450823
1002.425681749816
1002.794381665566
1000.75142408593
994.0415957935008
1003.384353314344
1001.151033467595
989.4644366310357
1001.456099721865
1004.184082641321
1002.10023962369
997.2281042253476
1000.817422833216
1000
997.8724613384109
1001.699879045079
1001.699878992619
1001.086084570756
999.0849632382673
996.889623370433
1002.444687813364
997.6689612427723
997.6689612358733
1000.69190203111
1000.691902007569
999.9475512720475
999.9475512503039
998.9918860718716
998.6581997838028
1000
1000
1000
1000
1000
1000
1000.943996035462
1001.016602367934
1000
1000.943995996794
1000
1000
1000
1000
1000
1000
1000
1000
1000
1000
1000
1000
1000
1000
1000
1000
1000
1000
1000
994.7545130336536
1000
1004.703242380614
1000
997.8311942259809
1002.145991783057
995.5306301490035
1000.990014775605
997.8406495052407
998.1893114962838
1013.644045586395
1016.807528156342
996.7563764274801
1001.190438772146
1003.721670401627
995.7332375642441
997.7081300193564
1001.91449226891
1000
1000
1000
1000
1000
1000
1000
1000
1000
1000
1000
999.2154176667799
995.2951878679175
1018.312826571344
1000
1000
1000
1000
998.2202158824499
1001.584041547222
1000
1000
1000
1000
1000
1000
1000
1000
1000
1001.638145980324
998.7991334682694
995.9317087639334
1000
1017.568408903798
992.5934038977261
1002.953431992942
997.1284343873175
999.4074685430173
991.5053820671581
1000.490194678703
993.5034108952819
999.6849488249594
1002.558941918027
999.8201855017778
1000.955717226991
997.2281041627291
1000.54337362573
997.7081299999112
996.457038054269
1003.548255569594
999.0913945042048
1002.507090239606
999.1610548897241
999.8540240751594
997.840649431226
996.312845410966
998.9378663625695
1000.326951476411
1002.662962972439
1001.243034609992
999.7888651516291
1005.277572333462
996.3355416763384
1000.701489959264
997.4061830491034
997.0321404655181
999.9764213310503
1000.823079044951
993.8205480109565
993.8205480749486
1004.329267799333
1004.329267877782
1000.73875912208
1000.738759185884
999.8209155608912
999.8209157355467
1000.986382457843
998.3795251770191
998.3795252468365
1001.283259126747
1001.28325901116
989.4644365560034
994.3745381580272
1002.486837766693
1006.598813866877
1021.134973631939
1002.890501242557
1002.212408245977
994.041596261988
1007.303317468045
1001.456099963467
1001.671881801886
1000.241633936006
1000
1000
1000
1000.537403357466
1000.173096794801
1000
1000
1000
1000.150057626849
1000.66270863356
1000.346408816508
1000
1000.660980376413
1001.305864847867
1001.310732599145
1000.072469943454
1001.627804982239
1000.652298397561
1000.729436369022
1000.233578567385
1000
1000.228091162915
1000.035865510119
1000.052375798763
1000
1001.987402338711
1000.157696000821
1000
1000
1001.723167263852
1001.751822687791
1001.650118634212
1000.699011999254
1000.228091162149
999.8276039914448
1001.292574035846
1002.212408290759
1002.890501487472
1021.134973884312
999.8276039192534
998.1178030579488
1000.699011842241
1001.650118830241
1004.34160403504
1001.723167204497
1000
1000
996.7563763648978
983.9931916265454
983.9931914538582
996.7662497245014
1002.231811876078
1001.987402458027
1000
1000.052375801198
1000
1000
1000.233578603854
1000.7294364027
1000
1000.072469938774
1001.310732653473
1001.305864890552
1000
1000
1000.346408809619
1000.662708643136
1000
1000
1000
1000.173096789505
1000
1000
1000
1000.241633930376
996.6677344994563
1000.230810764902
1000.397673958447
1002.413325717362
1000.397673624447
1002.413326051698
990.7999717281709
996.1897388204583
1004.327439799379
1000.396160839389
1004.327439674225
998.1178032814364
996.1867297662712
993.627414125004
1000.054999746903
1000.054999639136
994.6816785860458
994.6816785193752
998.6235545648722
1004.184082616732
998.4408303937749
1001.151033030597
1002.205175194491
1016.807528118221
1013.644045473574
1006.598813875357
1000.990014787496
1002.145991902914
1001.627804903303
1000
1004.70324227252
1004.341603983847
1000
1000
1002.231811835309
1000
1000
1000
1000
1000
1000
1000
1000
1000
1000
1000
1000
1000
1002.205175381607
1001.581313840562
1000.173636083333
1016.978786921437
1003.721670757725
1003.982949691647
1003.982949706911
997.0265516983751
997.0265514095256
996.6016946479808
991.7598381612437
991.759838165206
996.6016949710159
1000.530353581634
999.2111716343085
991.7268813487201
1003.384353320433
1003.64734438095
1002.654255139565
1000.205218325553
1000.20521848778
1003.539775077043
1007.642895891137
1007.642895904974
994.1477533905802
996.9895106326001
999.8655059538537
1001.630340911581
1005.099318715556
1002.092404320563
1002.092404534801
1002.532024832336
996.5117682146977
1000.5084886293
1000.508488681405
996.5117680487951
1006.882733395593
1004.416642518791
998.9909172430723
1004.321176893406
1004.321177317431
1001.448569145228
1000.751424033722
1000.540096947343
1000.540097008933
1002.558941949316
998.9258027024059
998.0176502128835
998.3817501764798
1012.113426445018
998.9124640509908
986.9822908791573
996.5444450101397
1002.425681675249
1000.583147630951
1005.274669841131
997.9046793933816
1002.054054947597
997.9046792677626
991.7864582773711
1012.113426418647
991.7864582015914
1001.722278508047
996.5444450968976
1001.149928487099
1001.149928422409
998.9124640675144
1000.619902814114
1002.054054970186
1001.095787171267
1000.619902738243
1000.173636022141
1006.743767777347
1002.794381700697
1003.018896163089
1000.589619186777
1000.589619232088
1001.131193752266
1003.765756791982
1003.765756829806
999.8489022411154
1000.579897493865
1003.681005217534
995.2252879955477
998.7353417976306
998.0854198348792
998.0854198204341
1002.086294237315
1005.336033375393
999.2333360071528
999.2333359854111
998.4704301335794
998.470430123567
998.1363811725419
991.7478265113
991.7478265540677
994.7545130059013
999.8062433053162
999.8062432926558
997.8311943075365
994.2670691726173
995.1616825231481
1000.491584736459
1000.108501423714
997.5844280917349
1001.55727669053
1001.557276612983
1001.490891187373
1001.490891219393
997.4498312703931
997.4498312532587
991.5724998913691
995.5306301752522
1001.430356401157
999.1077668780367
1000.70786007327
1007.761836477677
1007.761836614482
1002.595845913414
1001.211090872448
1003.302195201424
998.1893115654287
1002.815637379847
1002.947973096768
1000.487953686835
1001.984283806643
1001.98428378493
999.1601612428085
999.1601612300359
1000.396160819544
992.1994519342692
1000.81742279005
1000.307669727518
1000.909002090871
1004.343167844902
1001.593942426767
998.6687557459867
1001.983665366175
1001.98366535953
997.8393128316783
997.8393128443333
995.7332375736426
1000.833791806262
999.5866233230918
999.5866233502506
1001.35395700507
1001.25314435327
1001.197388823789
1001.197388844072
1001.914492300764
1000.955717238377
1000.015063075104
997.2634034609764
997.2634034802361
1002.346552987482
998.0459700025036
1002.346552940247
998.0459700222548
1001.270095120185
1001.780020469791
1000.699141817008
1001.780020456209
999.7365299295985
1000.318810780604
1000.591498158
996.3128454389475
1001.270095126376
1000.318810783213
999.5706289714469
1001.399071779242
1004.177929494386
999.5706289821322
1002.507090329334
996.3355416846682
998.183394241221
1003.302195204401
998.1833942062684
998.3076812497723
1000.675513216814
1001.328125943225
998.6313619699049
999.8540241341353
997.0321405127826
1000.591498170811
997.9998274090864
1005.519560684422
1002.120507867625
1004.177929505986
1005.373014616185
999.1077668415609
1000.95580093166
1000.108501424782
1000.675513195811
1000.319996602213
993.2845269040771
1000.955800925134
999.7888650720212
1000.319996627576
997.2861072691355
1001.200919785879
1000.015651140577
1001.200919746292
992.1994519251363
1001.253144405306
993.5034111206489
1000.833791767913
995.6947947811778
993.8765611440615
998.5691520775513
1000.69914180938
1004.343167984136
1000.015651138655
1001.672206257243
1005.565861455921
999.684948923207
997.1793051137439
1000.381615696765
1001.593942351141
1015.209337136752
1017.568408795047
999.4286048607433
1000.307669741965
1000.53330372194
1001.638146002675
996.7662498018259
997.1284343981404
999.7439113825375
1002.584867101161
1000
1000.487953562776
1000
999.3687559181905
999.0913944540744
998.3817501564159
991.5724999086377
991.7368052959007
1000.388346448233
1000.719535760935
999.3652618858841
1000
1000
1000.326951598976
1002.662963003661
998.1363812562784
1000
1000
999.3038669500522
999.2154177087668
1000
1000
997.8724613306666
997.8724612706995
1002.086294310266
1000
1000
999.7888650655786
999.1077668778519
1004.829770640898
1000
1000
998.9258027522682
999.7365299640048
998.7353416871508
1000
1000
999.3038669371692
1000
1000
999.3652618305387
1002.66296294856
999.596561618053
998.3817502029672
995.29518775006
1000.533303717531
998.3836033697692
1006.480937889461
1001.131193700712
999.588979938583
1002.04784076689
1002.953432009435
998.6235548737048
999.6188374178323
1000.381615638213
992.5934037753458
1000.015651173347
999.9764213358552
1000
1000
1000
1000
1000
993.1824271131704
1000
1000
1000
1000
1000
1010.063929906499
1000
1000
1001.584041079679
983.798335628428
1000
999.2111715273626
999.4074684129256
998.4009928087601
1000.49019467149
991.5053819722885
1008.637313516232
1002.654255163924
1001.672206258037
1000.32695140427
998.220215955099
1005.099318634098
998.1219460365002
1001.403499141484
1006.743767745228
1000.699141788542
1000
1000
1000
1000
1000
1000
1000.241633937064
1000
1000
1000
1000
1000
1000.17309677481
997.8406493734618
999.9099313865219
1000
1000
1000.173096770013
1000.537403354611
1001.638145994411
1000
1000
1000.241633934291
1001.671881806037
999.0913945097739
999.5414203848939
997.7081300477031
1000.04859802544
1018.312826542193
999.9838836440966
1000.626503445884
1002.161318666976
998.5960093917101
996.5608020778528
998.7991333687939
998.9341346341206
1000.823079133109
996.4570379999202
1000.135951726555
1001.571342839564
998.9258025863247
999.8489023415334
1000.559832820424
998.017650306257
998.0174588909575
999.0196861463155
999.5414203881693
1000.817422785615
1000.396160811002
1000
1001.243034645351
1000.396160856294
998.9378663471437
1000.891243750665
1003.647344329219
1000
1000
1000
1000
1000
1000
1000.108501457199
1000.81742289879
1001.32885212177
1000
1000
1000
1000
998.1833941700656
999.7365298897126
1000
1000.015063066355
1001.328852182287
1000
1000.675513157998
1002.815637377973
1000
1000
1000.94399596071
1000
1000.827317318757
1000
1000
1000
1000
999.3687558841141
999.1077669033476
1000
1000.10850145426
998.6942071449597
1002.4446878464
1000
1000
1000
1000
1000
1000
1000
1000
1000
1000
1000
1000
1000
1000
1000.319996613053
1000
1004.866291967838
1000
999.7888651612532
1000.319996548514
1003.302195205422
1003.302195193624
997.7081300222588
993.2845269033397
1000
1000
1000
1000.579897482367
1000
1000
999.5706289918967
999.5706290040876
1000.943995993589
1000
1000.318810774733
1000.318810789178
1001.320387095612
1004.177929494466
1004.177929473915
1000
1000
1000
1000
997.2281041816741
1002.558941875889
1001.016602319481
1002.55894192988
997.2281042778184
999.4286048067066
1000
1000.691901964122
1002.346552902251
997.2634035230836
998.6313620164073
1000.955717286689
998.6581998298474
999.9475513068353
997.2634034984478
999.9475513085431
1002.346552947698
1002.815637388553
1001.430356444137
999.9764213825058
1000.955717254022
998.9606156764646
997.8406495194519
998.1833942388627
1001.399071746054
1000
1000
997.1793051248679
997.2861073042806
999.8201854055725
998.7990835211098
999.5939101592653
1001.270095132298
1001.270095130393
1000.048598018177
1000.909002106321
1000.691901997024
998.0459700732947
998.045970043069
1000
998.7990836084246
1000
999.8201855194196
1001.593942403096
1000.675513172727
1000.048597989262
1000
1001.780020441274
1000.624524441356
995.9317087196715
999.019686300918
1003.64734429752
1001.780020470902
995.9317088563371
1000.543373648639
1001.038677973684
1001.03867796966
999.1775558160056
999.1775559318355
1000.015063029605
999.0018237957735
997.5835946470391
997.583594699601
999.4323234116937
999.5939100197621
999.4126291563167
999.4126290704393
999.6188376399263
998.9118924806078
998.9118924403172
1000.621908878497
1000.621908734689
997.9368719225555
998.4408303487922
1007.303317735079
1000.027956194556
998.9909171552716
999.9657923693366
999.9657923873017
1000.719535675307
1000.388346415331
1001.403499131527
1001.399071760392
999.6565943692927
999.6565943354922
1001.320387069236
999.7022363852022
1001.190438693708
1001.190438642565
1001.19050974676
1002.11520306618
1002.115202997125
1001.448568954748
999.1610549036637
1000.579897435728
999.1548303181852
999.1548303289371
1000.167611798686
1000.167611804073
999.4915259462939
999.491525965279
999.4323234539904
999.0784425835932
1000.058959774344
1000.058959764123
1000
1000
1000
1000
1000
1000.141823133926
999.001823846345
998.0205919586916
999.8514843765674
1001.311139428713
999.9684567967799
998.9834685809551
998.899005624664
998.8990056566628
1000.003516614028
1000.09322983525
1000
999.8986241308259
1000.003516653725
1000
1000.09322982638
998.9231359850162
1000.027956301715
1000
999.6407014948288
1000
999.9684568346162
1000.360155631889
1000
998.9834686146692
999.6407014824648
999.5624097652687
1000
1000
1000
1000
1000
1000
1000
1000
1000
1000
1000
1000
1000
1000
1000
998.9231359709171
1000
1000
1000
1000
1000
1000
1000
1000
1000
1000
1000
1000
999.8662845355531
999.851484367726
1000.141823203643
1000
1000
1000
1000
1000
1000
1000
1000
1000
1000
1000
1000
1000
1000
1000
1000
1000
1000
1000
1000
1000
999.8662844950777
1000
1000
1000
1000
1000
1000
1000
1000
1000
999.8514843903915
999.8986241557172
1000
1000
1000
1000
1000
1000
1000
1000
1000
1000
1000
1000
1000
1000
1000
1000
1000
1000
1000
1000
1000
1000
1000
1000
1000
1000
999.8514843838205
1001.311139421394
1000.360155534178
999.5624097473924
1000.093229829024
1000.093229839692
1000
1000.624524450546
1000
1000
1000
998.6725238844322
1000
1000
1000
1000
1000.624524461347
999.5414204039474
998.6725238979124
999.5414203732258
1000.624524478712
1000
998.9606157171926
1000
1000
1000
1000
1000
1000
1000
1000
1000
1000
1000
1000
1000
1000
1000
1000
1000
1000
1000
1000
1000
1000
1000
998.0205919789585
998.3076812406355
1000.04859800108
1000
1000
1000
1000
1000
1000
1000
1001.914492378338
1001.197388850305
1001.197388859645
1001.25314440483
1001.353956868679
999.5866232936268
999.5866233216336
995.7332375673506
995.7332375955674
1000.833791771067
995.6947951403314
997.8393128990051
997.8393128990565
1001.983665407453
1001.983665347631
998.6687558397074
998.5691519789632
1004.343167841396